/*--------------------------------*- C++ -*----------------------------------*\
| =========                 |                                                 |
| \\      /  F ield         | OpenFOAM: The Open Source CFD Toolbox           |
|  \\    /   O peration     | Version:  2.3.1                                 |
|   \\  /    A nd           | Web:      www.OpenFOAM.org                      |
|    \\/     M anipulation  |                                                 |
\*---------------------------------------------------------------------------*/
FoamFile
{
    version     2.0;
    format      ascii;
    class       volScalarField;
    location    "0";
    object      y;
}
// * * * * * * * * * * * * * * * * * * * * * * * * * * * * * * * * * * * * * //

dimensions      [0 1 0 0 0 0 0];

internalField   nonuniform List<scalar> 
34402
(
1.98259
1.87216
1.76843
1.67104
1.57962
1.49384
1.41339
1.33798
1.26734
1.2012
1.13931
1.08145
1.0274
0.976949
0.929905
0.886083
0.845308
0.807414
0.772244
0.739645
0.709474
0.681591
0.655865
0.632167
0.610374
0.590369
0.572037
0.555268
0.539956
0.526
0.513302
0.501769
0.491311
0.481844
0.473287
0.465565
0.458605
0.452342
0.446712
0.441658
0.437126
0.433066
0.429432
0.426182
0.423279
0.420686
0.418373
0.41631
0.414472
0.412834
0.411376
0.410078
0.408923
0.407896
0.406983
0.406171
0.405449
0.404808
0.404239
0.403733
0.403284
0.402885
0.402531
0.402216
0.401937
0.401689
0.401469
0.401274
0.401101
0.400948
0.400811
0.40069
0.400583
0.400488
0.400403
0.400328
0.400262
0.400203
0.400151
0.400104
0.400063
0.400027
0.399994
0.399966
0.39994
0.399918
0.399898
0.39988
0.399864
0.39985
0.399838
0.399827
0.399817
0.399809
0.399801
0.399794
0.399788
0.399783
0.399778
0.399774
0.39977
0.399767
0.399764
0.399761
0.399759
0.399757
0.399755
0.399754
0.399752
0.399751
0.39975
0.399749
0.399748
0.399747
0.399747
0.399746
0.399746
0.399745
0.399745
0.399744
0.399744
0.399744
0.399744
0.399743
0.399743
0.399743
0.399743
0.399743
0.399743
0.399742
0.399742
0.399742
0.399742
0.399742
0.399742
0.399742
0.399742
0.399742
0.399742
0.399742
0.399742
0.399742
0.399742
0.399742
0.399742
0.399742
0.399742
0.399742
0.399742
0.399742
0.399742
0.399742
0.399742
0.399742
0.399742
0.399742
0.399742
0.399742
0.399742
0.399742
0.399742
0.399742
0.399742
0.399742
0.399742
0.399742
0.399742
1.9805
1.86994
1.76609
1.66855
1.57699
1.49106
1.41046
1.33488
1.26406
1.19774
1.13566
1.07761
1.02336
0.972696
0.925435
0.881391
0.840389
0.802263
0.766857
0.734019
0.703606
0.675481
0.649512
0.625574
0.603544
0.583304
0.564743
0.547751
0.532223
0.518059
0.505161
0.493437
0.482799
0.473162
0.464445
0.456573
0.449474
0.443082
0.437333
0.432169
0.427536
0.423384
0.419666
0.416341
0.413368
0.410713
0.408343
0.406229
0.404345
0.402666
0.401171
0.39984
0.398656
0.397602
0.396665
0.395832
0.395092
0.394434
0.393849
0.39333
0.392869
0.392459
0.392096
0.391773
0.391486
0.391232
0.391006
0.390806
0.390628
0.390471
0.390331
0.390206
0.390096
0.389998
0.389912
0.389835
0.389766
0.389706
0.389652
0.389605
0.389562
0.389525
0.389492
0.389462
0.389436
0.389413
0.389392
0.389374
0.389358
0.389344
0.389331
0.38932
0.38931
0.389301
0.389293
0.389286
0.38928
0.389274
0.38927
0.389265
0.389262
0.389258
0.389255
0.389253
0.38925
0.389248
0.389246
0.389245
0.389243
0.389242
0.389241
0.38924
0.389239
0.389238
0.389237
0.389237
0.389236
0.389236
0.389235
0.389235
0.389235
0.389234
0.389234
0.389234
0.389234
0.389233
0.389233
0.389233
0.389233
0.389233
0.389233
0.389233
0.389233
0.389233
0.389233
0.389233
0.389232
0.389232
0.389232
0.389232
0.389232
0.389232
0.389232
0.389232
0.389232
0.389232
0.389232
0.389232
0.389232
0.389232
0.389232
0.389232
0.389232
0.389232
0.389232
0.389232
0.389232
0.389232
0.389232
0.389232
0.389232
0.389232
0.389232
0.389232
0.389232
0.389232
0.389232
1.97846
1.86779
1.7638
1.66614
1.57443
1.48835
1.40759
1.33186
1.26087
1.19437
1.13211
1.07386
1.01941
0.968544
0.92107
0.876807
0.83558
0.797224
0.761583
0.728507
0.697855
0.669488
0.643278
0.619098
0.596829
0.576354
0.557561
0.540343
0.524596
0.51022
0.497119
0.485201
0.474378
0.464566
0.455685
0.447659
0.440417
0.433891
0.428019
0.422741
0.418004
0.413756
0.409951
0.406545
0.403501
0.40078
0.398351
0.396184
0.394252
0.39253
0.390996
0.38963
0.388415
0.387333
0.386372
0.385516
0.384756
0.38408
0.38348
0.382947
0.382473
0.382053
0.381679
0.381347
0.381053
0.380792
0.38056
0.380354
0.380171
0.380009
0.379865
0.379738
0.379625
0.379524
0.379435
0.379356
0.379286
0.379224
0.379168
0.379119
0.379076
0.379038
0.379003
0.378973
0.378946
0.378922
0.378901
0.378883
0.378866
0.378851
0.378838
0.378827
0.378816
0.378807
0.378799
0.378792
0.378786
0.37878
0.378775
0.378771
0.378767
0.378763
0.37876
0.378758
0.378755
0.378753
0.378751
0.378749
0.378748
0.378747
0.378746
0.378744
0.378744
0.378743
0.378742
0.378741
0.378741
0.37874
0.37874
0.37874
0.378739
0.378739
0.378739
0.378738
0.378738
0.378738
0.378738
0.378738
0.378738
0.378737
0.378737
0.378737
0.378737
0.378737
0.378737
0.378737
0.378737
0.378737
0.378737
0.378737
0.378737
0.378737
0.378737
0.378737
0.378737
0.378737
0.378737
0.378737
0.378737
0.378737
0.378737
0.378737
0.378737
0.378737
0.378737
0.378737
0.378737
0.378737
0.378737
0.378737
0.378737
0.378737
0.378737
0.378737
0.378737
0.378737
0.378737
1.97648
1.86569
1.76158
1.66379
1.57194
1.48572
1.40481
1.32892
1.25776
1.19109
1.12865
1.07021
1.01556
0.964493
0.91681
0.87233
0.830881
0.792298
0.756425
0.723113
0.692222
0.663615
0.637163
0.612742
0.590233
0.56952
0.550495
0.533048
0.517079
0.502488
0.48918
0.477064
0.466052
0.456061
0.447011
0.438826
0.431436
0.424772
0.418772
0.413377
0.408531
0.404183
0.400287
0.396799
0.393679
0.39089
0.388399
0.386176
0.384194
0.382426
0.380852
0.379449
0.378201
0.37709
0.376102
0.375224
0.374443
0.373748
0.373131
0.372583
0.372096
0.371664
0.37128
0.370939
0.370637
0.370368
0.370129
0.369918
0.36973
0.369563
0.369415
0.369284
0.369168
0.369064
0.368973
0.368892
0.368819
0.368755
0.368699
0.368648
0.368604
0.368564
0.368529
0.368498
0.36847
0.368446
0.368424
0.368405
0.368388
0.368373
0.368359
0.368347
0.368337
0.368327
0.368319
0.368312
0.368305
0.368299
0.368294
0.36829
0.368286
0.368282
0.368279
0.368276
0.368274
0.368272
0.36827
0.368268
0.368266
0.368265
0.368264
0.368263
0.368262
0.368261
0.36826
0.36826
0.368259
0.368258
0.368258
0.368258
0.368257
0.368257
0.368257
0.368256
0.368256
0.368256
0.368256
0.368256
0.368256
0.368255
0.368255
0.368255
0.368255
0.368255
0.368255
0.368255
0.368255
0.368255
0.368255
0.368255
0.368255
0.368255
0.368255
0.368255
0.368255
0.368255
0.368255
0.368255
0.368255
0.368255
0.368255
0.368255
0.368255
0.368255
0.368255
0.368255
0.368255
0.368255
0.368255
0.368255
0.368255
0.368255
0.368255
0.368255
0.368255
0.368255
0.368255
1.97456
1.86365
1.75942
1.6615
1.56952
1.48316
1.4021
1.32605
1.25474
1.18789
1.12528
1.06666
1.01181
0.960545
0.912656
0.867963
0.826295
0.787487
0.751385
0.717839
0.68671
0.657863
0.63117
0.606508
0.583759
0.562808
0.543548
0.525871
0.509677
0.494868
0.481349
0.469031
0.457826
0.447651
0.438427
0.43008
0.422536
0.41573
0.409597
0.404079
0.39912
0.394669
0.390678
0.387103
0.383905
0.381044
0.378489
0.376207
0.374172
0.372357
0.370739
0.369299
0.368016
0.366875
0.365859
0.364956
0.364153
0.363439
0.362804
0.36224
0.36174
0.361295
0.3609
0.360549
0.360238
0.359961
0.359716
0.359498
0.359305
0.359133
0.358981
0.358846
0.358726
0.35862
0.358526
0.358442
0.358368
0.358302
0.358244
0.358192
0.358146
0.358105
0.358069
0.358037
0.358009
0.357983
0.357961
0.357941
0.357924
0.357908
0.357894
0.357882
0.357871
0.357861
0.357853
0.357845
0.357839
0.357833
0.357827
0.357823
0.357819
0.357815
0.357812
0.357809
0.357806
0.357804
0.357802
0.3578
0.357799
0.357797
0.357796
0.357795
0.357794
0.357793
0.357792
0.357792
0.357791
0.357791
0.35779
0.35779
0.357789
0.357789
0.357789
0.357789
0.357788
0.357788
0.357788
0.357788
0.357788
0.357788
0.357787
0.357787
0.357787
0.357787
0.357787
0.357787
0.357787
0.357787
0.357787
0.357787
0.357787
0.357787
0.357787
0.357787
0.357787
0.357787
0.357787
0.357787
0.357787
0.357787
0.357787
0.357787
0.357787
0.357787
0.357787
0.357787
0.357787
0.357787
0.357787
0.357787
0.357787
0.357787
0.357787
0.357787
0.357787
0.357787
0.357787
1.97269
1.86167
1.75733
1.65928
1.56717
1.48067
1.39947
1.32327
1.2518
1.18479
1.122
1.06319
1.00817
0.9567
0.908608
0.863706
0.821822
0.782793
0.746463
0.712686
0.681322
0.652237
0.625304
0.600401
0.577411
0.556221
0.536724
0.518815
0.502393
0.487363
0.47363
0.461106
0.449704
0.439341
0.429939
0.421423
0.413721
0.406768
0.400498
0.394853
0.389776
0.385217
0.381127
0.377462
0.374181
0.371246
0.368622
0.366279
0.364188
0.362324
0.360661
0.35918
0.357861
0.356687
0.355642
0.354713
0.353887
0.353152
0.352499
0.351919
0.351403
0.350945
0.350539
0.350178
0.349857
0.349572
0.34932
0.349096
0.348896
0.34872
0.348563
0.348424
0.348301
0.348191
0.348094
0.348008
0.347931
0.347864
0.347803
0.34775
0.347703
0.347661
0.347623
0.34759
0.347561
0.347535
0.347512
0.347492
0.347474
0.347458
0.347443
0.347431
0.34742
0.34741
0.347401
0.347393
0.347386
0.34738
0.347375
0.34737
0.347366
0.347362
0.347358
0.347355
0.347353
0.347351
0.347348
0.347347
0.347345
0.347344
0.347342
0.347341
0.34734
0.347339
0.347339
0.347338
0.347337
0.347337
0.347336
0.347336
0.347335
0.347335
0.347335
0.347334
0.347334
0.347334
0.347334
0.347334
0.347334
0.347334
0.347333
0.347333
0.347333
0.347333
0.347333
0.347333
0.347333
0.347333
0.347333
0.347333
0.347333
0.347333
0.347333
0.347333
0.347333
0.347333
0.347333
0.347333
0.347333
0.347333
0.347333
0.347333
0.347333
0.347333
0.347333
0.347333
0.347333
0.347333
0.347333
0.347333
0.347333
0.347333
0.347333
0.347333
0.347333
0.347333
0.347333
1.97088
1.85975
1.75529
1.65713
1.56489
1.47826
1.39692
1.32057
1.24894
1.18177
1.11881
1.05983
1.00462
0.952959
0.904669
0.859561
0.817464
0.778217
0.741663
0.707657
0.676059
0.646737
0.619565
0.594422
0.571191
0.549762
0.530027
0.511884
0.495233
0.479978
0.466028
0.453293
0.441689
0.431134
0.421549
0.41286
0.404996
0.39789
0.391478
0.385701
0.380502
0.375831
0.371638
0.367878
0.36451
0.361496
0.358802
0.356394
0.354245
0.352328
0.350618
0.349094
0.347737
0.346528
0.345453
0.344496
0.343645
0.342889
0.342216
0.341618
0.341087
0.340616
0.340197
0.339825
0.339494
0.339201
0.33894
0.338709
0.338504
0.338322
0.338161
0.338017
0.33789
0.337777
0.337677
0.337588
0.337509
0.337439
0.337377
0.337322
0.337274
0.33723
0.337192
0.337158
0.337128
0.337101
0.337077
0.337056
0.337038
0.337021
0.337006
0.336993
0.336982
0.336972
0.336962
0.336954
0.336947
0.336941
0.336935
0.33693
0.336926
0.336922
0.336919
0.336916
0.336913
0.336911
0.336908
0.336907
0.336905
0.336903
0.336902
0.336901
0.3369
0.336899
0.336898
0.336898
0.336897
0.336896
0.336896
0.336895
0.336895
0.336895
0.336894
0.336894
0.336894
0.336894
0.336893
0.336893
0.336893
0.336893
0.336893
0.336893
0.336893
0.336893
0.336893
0.336893
0.336893
0.336892
0.336892
0.336892
0.336892
0.336892
0.336892
0.336892
0.336892
0.336892
0.336892
0.336892
0.336892
0.336892
0.336892
0.336892
0.336892
0.336892
0.336892
0.336892
0.336892
0.336892
0.336892
0.336892
0.336892
0.336892
0.336892
0.336892
0.336892
0.336892
0.336892
1.96912
1.85789
1.75332
1.65504
1.56268
1.47592
1.39444
1.31795
1.24617
1.17884
1.11571
1.05656
1.00117
0.949323
0.900838
0.855528
0.813223
0.77376
0.736985
0.702753
0.670924
0.641368
0.613958
0.588575
0.565104
0.543435
0.523462
0.505083
0.4882
0.472718
0.458547
0.445599
0.433789
0.423037
0.413264
0.404397
0.396365
0.389101
0.382542
0.376628
0.371302
0.366514
0.362213
0.358354
0.354896
0.3518
0.34903
0.346555
0.344344
0.342371
0.340612
0.339043
0.337645
0.336401
0.335293
0.334307
0.33343
0.33265
0.331957
0.331341
0.330793
0.330307
0.329875
0.329491
0.32915
0.328848
0.328579
0.328341
0.328129
0.327941
0.327774
0.327627
0.327495
0.327379
0.327276
0.327184
0.327103
0.32703
0.326966
0.32691
0.326859
0.326815
0.326775
0.32674
0.326709
0.326681
0.326657
0.326635
0.326616
0.326599
0.326583
0.32657
0.326558
0.326548
0.326538
0.32653
0.326523
0.326516
0.32651
0.326505
0.326501
0.326497
0.326493
0.32649
0.326487
0.326485
0.326482
0.326481
0.326479
0.326477
0.326476
0.326475
0.326474
0.326473
0.326472
0.326471
0.326471
0.32647
0.326469
0.326469
0.326469
0.326468
0.326468
0.326468
0.326467
0.326467
0.326467
0.326467
0.326467
0.326467
0.326466
0.326466
0.326466
0.326466
0.326466
0.326466
0.326466
0.326466
0.326466
0.326466
0.326466
0.326466
0.326466
0.326466
0.326466
0.326466
0.326466
0.326466
0.326466
0.326466
0.326466
0.326466
0.326466
0.326466
0.326466
0.326466
0.326466
0.326466
0.326466
0.326466
0.326466
0.326466
0.326466
0.326466
0.326466
0.326466
0.326466
1.96742
1.85609
1.75141
1.65302
1.56054
1.47365
1.39204
1.31541
1.24348
1.176
1.11271
1.05339
0.997821
0.945793
0.897117
0.851609
0.809099
0.769425
0.732432
0.697976
0.66592
0.636131
0.608485
0.582864
0.559154
0.537244
0.517032
0.498416
0.481299
0.465588
0.451193
0.438027
0.426008
0.415054
0.405089
0.396039
0.387834
0.380407
0.373695
0.367639
0.362181
0.35727
0.352856
0.348894
0.345342
0.342159
0.339311
0.336764
0.334489
0.332457
0.330645
0.329029
0.327588
0.326305
0.325163
0.324146
0.323242
0.322437
0.321722
0.321086
0.320521
0.320019
0.319573
0.319177
0.318825
0.318513
0.318236
0.317989
0.317771
0.317577
0.317405
0.317252
0.317117
0.316996
0.31689
0.316795
0.316711
0.316636
0.31657
0.316512
0.31646
0.316414
0.316373
0.316336
0.316304
0.316276
0.31625
0.316228
0.316208
0.316191
0.316175
0.316161
0.316149
0.316138
0.316128
0.31612
0.316112
0.316105
0.316099
0.316094
0.316089
0.316085
0.316081
0.316078
0.316075
0.316073
0.316071
0.316069
0.316067
0.316065
0.316064
0.316063
0.316061
0.31606
0.31606
0.316059
0.316058
0.316058
0.316057
0.316057
0.316056
0.316056
0.316056
0.316055
0.316055
0.316055
0.316055
0.316054
0.316054
0.316054
0.316054
0.316054
0.316054
0.316054
0.316054
0.316054
0.316054
0.316054
0.316053
0.316053
0.316053
0.316053
0.316053
0.316053
0.316053
0.316053
0.316053
0.316053
0.316053
0.316053
0.316053
0.316053
0.316053
0.316053
0.316053
0.316053
0.316053
0.316053
0.316053
0.316053
0.316053
0.316053
0.316053
0.316053
0.316053
0.316053
0.316053
1.96578
1.85435
1.74957
1.65106
1.55847
1.47146
1.38971
1.31295
1.24088
1.17324
1.1098
1.05032
0.994576
0.942369
0.893506
0.847805
0.805094
0.765212
0.728005
0.69333
0.661048
0.631029
0.603149
0.577291
0.553342
0.531193
0.510742
0.491888
0.474535
0.458593
0.443971
0.430584
0.418351
0.407191
0.397029
0.387791
0.379407
0.371812
0.364943
0.358738
0.353143
0.348105
0.343573
0.339503
0.335851
0.332577
0.329646
0.327024
0.324681
0.322588
0.320719
0.319053
0.317567
0.316244
0.315065
0.314016
0.313082
0.312251
0.311512
0.310856
0.310272
0.309753
0.309293
0.308883
0.30852
0.308197
0.30791
0.307656
0.30743
0.30723
0.307052
0.306894
0.306754
0.306629
0.306519
0.306421
0.306334
0.306257
0.306189
0.306128
0.306075
0.306027
0.305985
0.305947
0.305914
0.305884
0.305858
0.305835
0.305814
0.305796
0.30578
0.305766
0.305753
0.305742
0.305732
0.305723
0.305715
0.305708
0.305702
0.305696
0.305692
0.305687
0.305683
0.30568
0.305677
0.305674
0.305672
0.30567
0.305668
0.305667
0.305665
0.305664
0.305663
0.305662
0.305661
0.30566
0.305659
0.305659
0.305658
0.305658
0.305657
0.305657
0.305657
0.305656
0.305656
0.305656
0.305656
0.305655
0.305655
0.305655
0.305655
0.305655
0.305655
0.305655
0.305655
0.305655
0.305655
0.305655
0.305654
0.305654
0.305654
0.305654
0.305654
0.305654
0.305654
0.305654
0.305654
0.305654
0.305654
0.305654
0.305654
0.305654
0.305654
0.305654
0.305654
0.305654
0.305654
0.305654
0.305654
0.305654
0.305654
0.305654
0.305654
0.305654
0.305654
0.305654
0.305654
1.96419
1.85267
1.74778
1.64917
1.55646
1.46933
1.38747
1.31057
1.23836
1.17058
1.10699
1.04734
0.991434
0.939052
0.890007
0.844117
0.801209
0.761123
0.723707
0.688815
0.65631
0.626065
0.597954
0.571861
0.547674
0.525287
0.504596
0.485503
0.467914
0.451737
0.436886
0.423276
0.410825
0.399455
0.38909
0.379659
0.371092
0.363323
0.35629
0.349932
0.344194
0.339023
0.334368
0.330184
0.326428
0.323059
0.320041
0.317339
0.314924
0.312765
0.310838
0.309118
0.307585
0.306218
0.305001
0.303916
0.302952
0.302093
0.301329
0.30065
0.300047
0.299511
0.299034
0.298611
0.298235
0.297901
0.297604
0.297341
0.297107
0.2969
0.296716
0.296552
0.296407
0.296278
0.296164
0.296063
0.295973
0.295894
0.295823
0.29576
0.295704
0.295655
0.295611
0.295572
0.295538
0.295507
0.29548
0.295456
0.295435
0.295416
0.295399
0.295385
0.295371
0.29536
0.295349
0.29534
0.295332
0.295325
0.295319
0.295313
0.295308
0.295303
0.295299
0.295296
0.295293
0.29529
0.295288
0.295286
0.295284
0.295282
0.295281
0.295279
0.295278
0.295277
0.295276
0.295275
0.295275
0.295274
0.295273
0.295273
0.295272
0.295272
0.295272
0.295271
0.295271
0.295271
0.295271
0.295271
0.29527
0.29527
0.29527
0.29527
0.29527
0.29527
0.29527
0.29527
0.29527
0.29527
0.295269
0.295269
0.295269
0.295269
0.295269
0.295269
0.295269
0.295269
0.295269
0.295269
0.295269
0.295269
0.295269
0.295269
0.295269
0.295269
0.295269
0.295269
0.295269
0.295269
0.295269
0.295269
0.295269
0.295269
0.295269
0.295269
0.295269
0.295269
0.295269
1.96266
1.85104
1.74606
1.64734
1.55453
1.46728
1.3853
1.30827
1.23593
1.16801
1.10426
1.04447
0.988395
0.935843
0.88662
0.840545
0.797445
0.75716
0.719537
0.684433
0.65171
0.62124
0.592901
0.566575
0.542153
0.519527
0.498598
0.479266
0.461439
0.445027
0.429945
0.416107
0.403435
0.39185
0.381279
0.37165
0.362894
0.354946
0.347743
0.341226
0.335339
0.330029
0.325246
0.320943
0.317077
0.313608
0.310498
0.307713
0.305221
0.302993
0.301004
0.299227
0.297643
0.29623
0.294971
0.29385
0.292852
0.291964
0.291174
0.290471
0.289846
0.289291
0.288798
0.288359
0.28797
0.287624
0.287317
0.287044
0.286802
0.286587
0.286396
0.286227
0.286077
0.285944
0.285825
0.28572
0.285627
0.285545
0.285471
0.285406
0.285349
0.285298
0.285252
0.285212
0.285176
0.285145
0.285117
0.285092
0.28507
0.28505
0.285033
0.285017
0.285004
0.284992
0.284981
0.284971
0.284963
0.284955
0.284949
0.284943
0.284938
0.284933
0.284929
0.284925
0.284922
0.284919
0.284917
0.284915
0.284913
0.284911
0.284909
0.284908
0.284907
0.284906
0.284905
0.284904
0.284903
0.284903
0.284902
0.284901
0.284901
0.284901
0.2849
0.2849
0.2849
0.284899
0.284899
0.284899
0.284899
0.284899
0.284899
0.284898
0.284898
0.284898
0.284898
0.284898
0.284898
0.284898
0.284898
0.284898
0.284898
0.284898
0.284898
0.284898
0.284898
0.284898
0.284898
0.284898
0.284898
0.284898
0.284898
0.284898
0.284898
0.284898
0.284898
0.284898
0.284898
0.284898
0.284898
0.284898
0.284898
0.284898
0.284898
0.284898
0.284898
0.284898
0.284898
1.96118
1.84948
1.7444
1.64558
1.55266
1.46531
1.3832
1.30606
1.23358
1.16553
1.10164
1.04169
0.985459
0.932742
0.883347
0.837091
0.793803
0.753324
0.7155
0.680187
0.647249
0.616559
0.587994
0.561438
0.536782
0.513921
0.492753
0.473182
0.455117
0.438469
0.423152
0.409085
0.396189
0.384386
0.373603
0.363771
0.354821
0.346687
0.339309
0.332627
0.326585
0.32113
0.316213
0.311785
0.307804
0.304229
0.301023
0.298149
0.295576
0.293276
0.291219
0.289383
0.287744
0.286283
0.28498
0.28382
0.282786
0.281866
0.281048
0.28032
0.279672
0.279097
0.278585
0.278131
0.277727
0.277368
0.27705
0.276767
0.276516
0.276293
0.276095
0.27592
0.275764
0.275625
0.275503
0.275394
0.275297
0.275211
0.275135
0.275068
0.275008
0.274955
0.274908
0.274866
0.274829
0.274796
0.274767
0.274741
0.274719
0.274698
0.27468
0.274664
0.27465
0.274638
0.274626
0.274617
0.274608
0.2746
0.274593
0.274587
0.274582
0.274577
0.274573
0.274569
0.274566
0.274563
0.27456
0.274558
0.274556
0.274554
0.274552
0.274551
0.27455
0.274549
0.274548
0.274547
0.274546
0.274545
0.274545
0.274544
0.274544
0.274543
0.274543
0.274543
0.274542
0.274542
0.274542
0.274542
0.274541
0.274541
0.274541
0.274541
0.274541
0.274541
0.274541
0.274541
0.274541
0.274541
0.274541
0.27454
0.27454
0.27454
0.27454
0.27454
0.27454
0.27454
0.27454
0.27454
0.27454
0.27454
0.27454
0.27454
0.27454
0.27454
0.27454
0.27454
0.27454
0.27454
0.27454
0.27454
0.27454
0.27454
0.27454
0.27454
0.27454
0.27454
0.27454
1.95976
1.84797
1.7428
1.64389
1.55087
1.46341
1.38119
1.30392
1.23132
1.16313
1.09911
1.03901
0.982628
0.92975
0.880187
0.833756
0.790286
0.749616
0.711595
0.676078
0.64293
0.612024
0.583236
0.556454
0.531567
0.50847
0.487065
0.467257
0.448953
0.432068
0.416516
0.402217
0.389092
0.377068
0.36607
0.35603
0.346879
0.338555
0.330996
0.324143
0.31794
0.312334
0.307275
0.302717
0.298615
0.294929
0.29162
0.288653
0.285995
0.283616
0.28149
0.279589
0.277893
0.276379
0.27503
0.273827
0.272756
0.271802
0.270953
0.270198
0.269526
0.268929
0.268398
0.267926
0.267507
0.267134
0.266804
0.26651
0.266249
0.266018
0.265812
0.26563
0.265468
0.265324
0.265197
0.265084
0.264983
0.264894
0.264815
0.264745
0.264683
0.264628
0.264579
0.264536
0.264497
0.264463
0.264433
0.264406
0.264382
0.264361
0.264342
0.264326
0.264311
0.264298
0.264286
0.264276
0.264267
0.264259
0.264252
0.264245
0.26424
0.264235
0.264231
0.264227
0.264223
0.26422
0.264217
0.264215
0.264213
0.264211
0.264209
0.264208
0.264207
0.264205
0.264204
0.264203
0.264203
0.264202
0.264201
0.264201
0.2642
0.2642
0.264199
0.264199
0.264199
0.264199
0.264198
0.264198
0.264198
0.264198
0.264198
0.264198
0.264197
0.264197
0.264197
0.264197
0.264197
0.264197
0.264197
0.264197
0.264197
0.264197
0.264197
0.264197
0.264197
0.264197
0.264197
0.264197
0.264197
0.264197
0.264197
0.264197
0.264197
0.264197
0.264197
0.264197
0.264197
0.264197
0.264197
0.264197
0.264197
0.264197
0.264197
0.264197
0.264197
0.264197
0.264197
1.95839
1.84652
1.74127
1.64226
1.54914
1.46158
1.37925
1.30187
1.22915
1.16083
1.09667
1.03643
0.979901
0.926867
0.877141
0.83054
0.786892
0.746038
0.707824
0.672108
0.638754
0.607635
0.57863
0.551624
0.526508
0.50318
0.48154
0.461494
0.442953
0.425829
0.410041
0.395508
0.382153
0.369903
0.358686
0.348433
0.339077
0.330557
0.32281
0.31578
0.309409
0.303645
0.298439
0.293744
0.289515
0.285712
0.282295
0.279228
0.27648
0.274019
0.271817
0.269849
0.268091
0.266521
0.265122
0.263874
0.262762
0.261772
0.26089
0.260105
0.259408
0.258787
0.258235
0.257745
0.257309
0.256922
0.256578
0.256273
0.256002
0.255761
0.255547
0.255357
0.255189
0.255039
0.254907
0.254789
0.254685
0.254592
0.25451
0.254437
0.254372
0.254315
0.254264
0.254219
0.254179
0.254143
0.254112
0.254084
0.254059
0.254037
0.254018
0.254
0.253985
0.253972
0.253959
0.253949
0.253939
0.253931
0.253924
0.253917
0.253911
0.253906
0.253901
0.253897
0.253894
0.253891
0.253888
0.253885
0.253883
0.253881
0.253879
0.253878
0.253876
0.253875
0.253874
0.253873
0.253872
0.253872
0.253871
0.25387
0.25387
0.253869
0.253869
0.253869
0.253868
0.253868
0.253868
0.253868
0.253868
0.253867
0.253867
0.253867
0.253867
0.253867
0.253867
0.253867
0.253867
0.253867
0.253867
0.253866
0.253866
0.253866
0.253866
0.253866
0.253866
0.253866
0.253866
0.253866
0.253866
0.253866
0.253866
0.253866
0.253866
0.253866
0.253866
0.253866
0.253866
0.253866
0.253866
0.253866
0.253866
0.253866
0.253866
0.253866
0.253866
0.253866
0.253866
1.95708
1.84513
1.73979
1.6407
1.54749
1.45982
1.37739
1.29989
1.22706
1.15862
1.09433
1.03395
0.977279
0.924095
0.874211
0.827445
0.783625
0.742591
0.70419
0.66828
0.634724
0.603398
0.574178
0.546953
0.521612
0.498054
0.476182
0.4559
0.437122
0.41976
0.403735
0.388966
0.375379
0.3629
0.351459
0.340989
0.331424
0.322701
0.314761
0.307547
0.301001
0.295074
0.289714
0.284875
0.280513
0.276585
0.273054
0.269883
0.267038
0.264489
0.262207
0.260166
0.258342
0.256714
0.25526
0.253964
0.252808
0.251779
0.250862
0.250046
0.24932
0.248674
0.2481
0.24759
0.247136
0.246733
0.246375
0.246057
0.245774
0.245523
0.245301
0.245103
0.244928
0.244772
0.244634
0.244511
0.244402
0.244306
0.24422
0.244144
0.244077
0.244017
0.243964
0.243917
0.243875
0.243838
0.243805
0.243776
0.24375
0.243727
0.243707
0.243689
0.243673
0.243659
0.243646
0.243635
0.243625
0.243617
0.243609
0.243602
0.243596
0.243591
0.243586
0.243582
0.243578
0.243575
0.243572
0.243569
0.243567
0.243565
0.243563
0.243561
0.24356
0.243559
0.243558
0.243557
0.243556
0.243555
0.243554
0.243554
0.243553
0.243553
0.243552
0.243552
0.243552
0.243551
0.243551
0.243551
0.243551
0.24355
0.24355
0.24355
0.24355
0.24355
0.24355
0.24355
0.24355
0.24355
0.24355
0.243549
0.243549
0.243549
0.243549
0.243549
0.243549
0.243549
0.243549
0.243549
0.243549
0.243549
0.243549
0.243549
0.243549
0.243549
0.243549
0.243549
0.243549
0.243549
0.243549
0.243549
0.243549
0.243549
0.243549
0.243549
0.243549
0.243549
0.243549
1.95583
1.8438
1.73838
1.6392
1.5459
1.45814
1.3756
1.298
1.22505
1.1565
1.09208
1.03157
0.974762
0.921433
0.871397
0.824471
0.780484
0.739276
0.700693
0.664594
0.630843
0.599313
0.569885
0.542443
0.516882
0.493098
0.470995
0.450481
0.431466
0.413868
0.397605
0.382599
0.368778
0.356067
0.344399
0.333708
0.323928
0.314998
0.306859
0.299454
0.292728
0.286629
0.281108
0.276118
0.271615
0.267557
0.263905
0.260623
0.257676
0.255033
0.252666
0.250548
0.248653
0.24696
0.245449
0.244101
0.242898
0.241827
0.240872
0.240022
0.239266
0.238593
0.237994
0.237462
0.236989
0.236569
0.236195
0.235863
0.235569
0.235307
0.235074
0.234868
0.234685
0.234523
0.234378
0.23425
0.234137
0.234036
0.233946
0.233867
0.233797
0.233734
0.233679
0.23363
0.233586
0.233548
0.233513
0.233483
0.233456
0.233432
0.233411
0.233392
0.233376
0.233361
0.233348
0.233336
0.233326
0.233317
0.233309
0.233301
0.233295
0.23329
0.233285
0.23328
0.233276
0.233273
0.23327
0.233267
0.233265
0.233262
0.233261
0.233259
0.233257
0.233256
0.233255
0.233254
0.233253
0.233252
0.233251
0.233251
0.23325
0.23325
0.233249
0.233249
0.233249
0.233248
0.233248
0.233248
0.233248
0.233247
0.233247
0.233247
0.233247
0.233247
0.233247
0.233247
0.233247
0.233247
0.233247
0.233247
0.233246
0.233246
0.233246
0.233246
0.233246
0.233246
0.233246
0.233246
0.233246
0.233246
0.233246
0.233246
0.233246
0.233246
0.233246
0.233246
0.233246
0.233246
0.233246
0.233246
0.233246
0.233246
0.233246
0.233246
0.233246
0.233246
0.233246
1.95463
1.84252
1.73703
1.63777
1.54438
1.45653
1.3739
1.29619
1.22314
1.15446
1.08993
1.0293
0.972351
0.918882
0.868699
0.821619
0.777471
0.736094
0.697336
0.661053
0.627112
0.595384
0.565751
0.538099
0.512321
0.488315
0.465986
0.44524
0.425992
0.408157
0.391657
0.376415
0.362358
0.349414
0.337516
0.326599
0.3166
0.307457
0.299113
0.291511
0.284597
0.278321
0.272632
0.267484
0.262833
0.258637
0.254857
0.251456
0.248401
0.245659
0.2432
0.240998
0.239028
0.237267
0.235693
0.234289
0.233036
0.231919
0.230923
0.230036
0.229247
0.228545
0.22792
0.227364
0.22687
0.226431
0.22604
0.225694
0.225386
0.225112
0.224869
0.224653
0.224462
0.224292
0.224141
0.224007
0.223889
0.223783
0.22369
0.223607
0.223533
0.223468
0.22341
0.223359
0.223313
0.223273
0.223237
0.223205
0.223177
0.223152
0.22313
0.22311
0.223093
0.223077
0.223063
0.223051
0.223041
0.223031
0.223023
0.223015
0.223008
0.223002
0.222997
0.222993
0.222989
0.222985
0.222982
0.222979
0.222976
0.222974
0.222972
0.22297
0.222969
0.222968
0.222966
0.222965
0.222964
0.222963
0.222963
0.222962
0.222961
0.222961
0.22296
0.22296
0.22296
0.222959
0.222959
0.222959
0.222959
0.222959
0.222958
0.222958
0.222958
0.222958
0.222958
0.222958
0.222958
0.222958
0.222958
0.222958
0.222957
0.222957
0.222957
0.222957
0.222957
0.222957
0.222957
0.222957
0.222957
0.222957
0.222957
0.222957
0.222957
0.222957
0.222957
0.222957
0.222957
0.222957
0.222957
0.222957
0.222957
0.222957
0.222957
0.222957
0.222957
0.222957
0.222957
1.95348
1.84131
1.73574
1.6364
1.54293
1.45499
1.37227
1.29447
1.22131
1.15252
1.08787
1.02712
0.970046
0.916443
0.866119
0.81889
0.774587
0.733047
0.694119
0.657659
0.623532
0.591613
0.561781
0.533924
0.507934
0.48371
0.461158
0.440185
0.420705
0.402636
0.3859
0.370421
0.356127
0.342948
0.330818
0.319672
0.309449
0.300089
0.291534
0.283729
0.276621
0.270159
0.264295
0.258981
0.254174
0.249833
0.245918
0.242392
0.239221
0.236372
0.233816
0.231525
0.229473
0.227638
0.225998
0.224532
0.223225
0.222058
0.221018
0.220092
0.219266
0.218532
0.217878
0.217297
0.21678
0.21632
0.215912
0.215549
0.215226
0.21494
0.214685
0.214459
0.214259
0.214081
0.213923
0.213782
0.213658
0.213548
0.213449
0.213363
0.213285
0.213217
0.213156
0.213102
0.213055
0.213012
0.212975
0.212941
0.212912
0.212886
0.212862
0.212842
0.212824
0.212807
0.212793
0.21278
0.212769
0.212759
0.21275
0.212742
0.212735
0.212729
0.212724
0.212719
0.212715
0.212711
0.212707
0.212704
0.212702
0.212699
0.212697
0.212696
0.212694
0.212693
0.212691
0.21269
0.212689
0.212688
0.212688
0.212687
0.212686
0.212686
0.212685
0.212685
0.212684
0.212684
0.212684
0.212684
0.212683
0.212683
0.212683
0.212683
0.212683
0.212682
0.212682
0.212682
0.212682
0.212682
0.212682
0.212682
0.212682
0.212682
0.212682
0.212682
0.212682
0.212682
0.212682
0.212682
0.212682
0.212682
0.212682
0.212682
0.212682
0.212682
0.212682
0.212682
0.212682
0.212682
0.212682
0.212682
0.212682
0.212682
0.212682
0.212682
0.212682
0.212682
0.212682
1.95239
1.84015
1.73451
1.6351
1.54155
1.45352
1.37071
1.29282
1.21956
1.15067
1.08591
1.02504
0.967848
0.914116
0.863656
0.816285
0.771832
0.730136
0.691044
0.654412
0.620107
0.588002
0.557977
0.529919
0.503723
0.479287
0.456516
0.435319
0.415612
0.397311
0.380341
0.364626
0.350095
0.336681
0.324316
0.312939
0.302488
0.292905
0.284134
0.27612
0.268811
0.262157
0.256109
0.250622
0.245652
0.241157
0.237099
0.23344
0.230145
0.227183
0.224522
0.222135
0.219996
0.218081
0.216368
0.214837
0.21347
0.21225
0.211162
0.210192
0.209328
0.208558
0.207873
0.207263
0.206721
0.206239
0.205811
0.20543
0.205091
0.204791
0.204524
0.204287
0.204076
0.203889
0.203723
0.203576
0.203445
0.203329
0.203226
0.203135
0.203054
0.202982
0.202918
0.202862
0.202812
0.202767
0.202728
0.202693
0.202662
0.202634
0.20261
0.202588
0.202569
0.202552
0.202537
0.202523
0.202511
0.202501
0.202492
0.202483
0.202476
0.20247
0.202464
0.202459
0.202454
0.20245
0.202447
0.202444
0.202441
0.202438
0.202436
0.202434
0.202433
0.202431
0.20243
0.202429
0.202427
0.202427
0.202426
0.202425
0.202424
0.202424
0.202423
0.202423
0.202423
0.202422
0.202422
0.202422
0.202421