/*--------------------------------*- C++ -*----------------------------------*\
| =========                 |                                                 |
| \\      /  F ield         | OpenFOAM: The Open Source CFD Toolbox           |
|  \\    /   O peration     | Version:  2.3.1                                 |
|   \\  /    A nd           | Web:      www.OpenFOAM.org                      |
|    \\/     M anipulation  |                                                 |
\*---------------------------------------------------------------------------*/
FoamFile
{
    version     2.0;
    format      ascii;
    class       volScalarField;
    location    "0";
    object      yPlus;
}
// * * * * * * * * * * * * * * * * * * * * * * * * * * * * * * * * * * * * * //

dimensions      [0 0 0 0 0 0 0];

internalField   nonuniform List<scalar> 
34402
(
2.64822e+06
2.50071e+06
2.36216e+06
2.23207e+06
2.10995e+06
1.99538e+06
1.88792e+06
1.7872e+06
1.69283e+06
1.60448e+06
1.52182e+06
1.44454e+06
1.37234e+06
1.30495e+06
1.24211e+06
1.18357e+06
1.12911e+06
1.07849e+06
1.03152e+06
987972
947671
910427
876063
844409
815300
788578
764092
741692
721240
702599
685638
670232
656263
643617
632188
621873
612577
604210
596691
589940
583886
578462
573608
569268
565389
561926
558836
556081
553625
551438
549490
547756
546214
544842
543622
542538
541574
540718
539957
539281
538681
538149
537675
537255
536883
536552
536258
535997
535766
535561
535379
535217
535074
534947
534834
534734
534645
534566
534497
534435
534380
534331
534288
534249
534215
534185
534159
534135
534114
534095
534079
534064
534051
534040
534029
534020
534012
534005
533999
533993
533988
533984
533980
533977
533974
533971
533969
533966
533965
533963
533961
533960
533959
533958
533957
533956
533956
533955
533954
533954
533953
533953
533953
533952
533952
533952
533952
533952
533951
533951
533951
533951
533951
533951
533951
533951
533951
533951
533951
533951
533950
533950
533950
533950
533950
533950
533950
533950
533950
533950
533950
533950
533950
533950
533950
533950
533950
533950
533950
533950
533950
533950
533950
533950
533950
533950
533950
2.64542e+06
2.49775e+06
2.35903e+06
2.22875e+06
2.10645e+06
1.99167e+06
1.884e+06
1.78305e+06
1.68846e+06
1.59987e+06
1.51695e+06
1.43941e+06
1.36694e+06
1.29927e+06
1.23614e+06
1.17731e+06
1.12254e+06
1.07161e+06
1.02432e+06
980457
939833
902266
867579
835603
806176
779142
754349
731651
710910
691991
674763
659103
644893
632020
620377
609862
600380
591841
584163
577265
571077
565530
560564
556122
552151
548605
545439
542616
540099
537857
535859
534082
532499
531092
529841
528728
527739
526860
526080
525386
524770
524223
523737
523306
522923
522584
522282
522015
521777
521566
521379
521214
521066
520936
520820
520717
520626
520545
520473
520410
520353
520303
520259
520220
520185
520154
520126
520102
520080
520061
520044
520029
520016
520004
519994
519984
519976
519969
519962
519957
519951
519947
519943
519939
519936
519934
519931
519929
519927
519925
519924
519922
519921
519920
519919
519918
519918
519917
519917
519916
519916
519915
519915
519915
519914
519914
519914
519914
519913
519913
519913
519913
519913
519913
519913
519913
519913
519913
519913
519913
519913
519913
519912
519913
519912
519912
519912
519912
519912
519912
519912
519912
519912
519912
519912
519912
519912
519912
519912
519912
519912
519912
519912
519912
519912
519912
519912
2.6427e+06
2.49487e+06
2.35598e+06
2.22552e+06
2.10303e+06
1.98805e+06
1.88018e+06
1.77902e+06
1.68419e+06
1.59537e+06
1.5122e+06
1.4344e+06
1.36167e+06
1.29372e+06
1.23031e+06
1.17118e+06
1.11612e+06
1.06488e+06
1.01728e+06
973095
932151
894261
859251
826953
797207
769858
744756
721757
700723
681520
664021
648102
633645
620539
608676
597955
588281
579565
571721
564672
558344
552669
547587
543038
538971
535337
532093
529198
526618
524317
522268
520444
518820
517376
516091
514949
513933
513031
512229
511517
510884
510322
509823
509380
508987
508638
508328
508053
507809
507593
507401
507230
507079
506945
506826
506720
506627
506543
506470
506404
506346
506295
506249
506209
506173
506141
506113
506088
506066
506046
506029
506013
506000
505987
505977
505967
505959
505951
505944
505939
505933
505929
505925
505921
505918
505915
505912
505910
505908
505906
505905
505903
505902
505901
505900
505899
505899
505898
505897
505897
505896
505896
505896
505895
505895
505895
505895
505894
505894
505894
505894
505894
505894
505894
505894
505894
505893
505893
505893
505893
505893
505893
505893
505893
505893
505893
505893
505893
505893
505893
505893
505893
505893
505893
505893
505893
505893
505893
505893
505893
505893
505893
505893
505893
505893
505893
505893
2.64006e+06
2.49207e+06
2.35301e+06
2.22238e+06
2.09971e+06
1.98454e+06
1.87646e+06
1.77509e+06
1.68004e+06
1.59098e+06
1.50758e+06
1.42952e+06
1.35653e+06
1.28831e+06
1.22462e+06
1.16521e+06
1.10984e+06
1.0583e+06
1.01039e+06
965890
924627
886416
851082
818462
788396
760730
735317
712013
690682
671193
653417
637233
622524
609178
597090
586157
576285
567384
559370
552163
545690
539883
534679
530019
525852
522126
518799
515830
513182
510821
508718
506845
505178
503694
502374
501201
500157
499230
498406
497674
497024
496446
495933
495478
495073
494715
494396
494113
493862
493640
493442
493267
493111
492973
492851
492742
492646
492561
492485
492418
492358
492305
492258
492217
492180
492147
492118
492092
492069
492049
492031
492015
492001
491989
491978
491968
491959
491952
491945
491939
491933
491929
491924
491921
491917
491914
491912
491909
491907
491906
491904
491903
491901
491900
491899
491898
491898
491897
491896
491896
491895
491895
491895
491894
491894
491894
491893
491893
491893
491893
491893
491893
491893
491892
491892
491892
491892
491892
491892
491892
491892
491892
491892
491892
491892
491892
491892
491892
491892
491892
491892
491892
491892
491892
491892
491892
491892
491892
491892
491892
491892
491892
491892
491892
491892
491892
491892
2.63749e+06
2.48935e+06
2.35013e+06
2.21933e+06
2.09647e+06
1.98112e+06
1.87284e+06
1.77126e+06
1.676e+06
1.58671e+06
1.50307e+06
1.42477e+06
1.35152e+06
1.28304e+06
1.21907e+06
1.15937e+06
1.10371e+06
1.05188e+06
1.00365e+06
958845
917265
878733
843078
810136
779749
751765
726037
702426
680795
661014
642957
626503
611536
597945
585624
574474
564398
555306
547115
539744
533120
527175
521844
517069
512796
508975
505562
502514
499796
497371
495211
493287
491573
490048
488692
487485
486412
485459
484611
483858
483190
482595
482068
481599
481183
480814
480486
480196
479937
479708
479505
479325
479165
479023
478897
478785
478686
478598
478520
478451
478389
478335
478286
478244
478206
478172
478142
478116
478092
478071
478053
478037
478022
478009
477998
477988
477979
477971
477964
477957
477952
477947
477943
477939
477935
477932
477930
477927
477925
477923
477922
477920
477919
477918
477917
477916
477915
477915
477914
477913
477913
477912
477912
477912
477911
477911
477911
477911
477911
477910
477910
477910
477910
477910
477910
477910
477910
477910
477910
477910
477910
477910
477910
477910
477909
477909
477909
477909
477909
477909
477909
477909
477909
477909
477909
477909
477909
477909
477909
477909
477909
477909
477909
477909
477909
477909
477909
2.635e+06
2.48671e+06
2.34733e+06
2.21636e+06
2.09333e+06
1.97779e+06
1.86933e+06
1.76755e+06
1.67207e+06
1.58256e+06
1.49869e+06
1.42015e+06
1.34664e+06
1.2779e+06
1.21366e+06
1.15369e+06
1.09774e+06
1.04561e+06
997080
951962
910068
871218
835242
801978
771270
742966
716923
693001
671066
650989
632646
615917
600686
586844
574286
562911
552623
543335
534960
527420
520639
514550
509086
504191
499808
495887
492383
489253
486460
483969
481749
479771
478009
476441
475045
473804
472700
471719
470846
470071
469383
468771
468228
467746
467317
466937
466600
466300
466034
465798
465589
465403
465238
465092
464962
464847
464745
464655
464574
464503
464440
464384
464334
464290
464251
464216
464185
464158
464134
464112
464093
464077
464062
464048
464037
464026
464017
464009
464002
463995
463989
463984
463980
463976
463972
463969
463967
463964
463962
463960
463958
463957
463956
463954
463953
463952
463952
463951
463950
463950
463949
463949
463948
463948
463948
463947
463947
463947
463947
463947
463947
463946
463946
463946
463946
463946
463946
463946
463946
463946
463946
463946
463946
463946
463946
463946
463946
463946
463946
463946
463946
463946
463946
463946
463946
463946
463946
463946
463946
463946
463946
463946
463946
463946
463946
463946
463946
2.63258e+06
2.48414e+06
2.34461e+06
2.21349e+06
2.09029e+06
1.97457e+06
1.86592e+06
1.76394e+06
1.66826e+06
1.57853e+06
1.49443e+06
1.41566e+06
1.3419e+06
1.2729e+06
1.2084e+06
1.14815e+06
1.09192e+06
1.03949e+06
990667
945244
903038
863872
827577
793992
762962
734338
707978
683743
661501
641125
622491
605481
589982
575882
563079
551473
540969
531476
522912
515195
508251
502011
496410
491388
486890
482865
479265
476049
473178
470618
468334
466298
464485
462871
461435
460157
459020
458010
457111
456313
455604
454973
454414
453917
453475
453084
452736
452427
452153
451910
451694
451503
451333
451182
451048
450929
450824
450731
450648
450574
450509
450452
450400
450355
450314
450279
450247
450219
450194
450172
450152
450135
450119
450106
450094
450083
450073
450065
450058
450051
450045
450040
450035
450031
450028
450024
450021
450019
450017
450015
450013
450011
450010
450009
450008
450007
450006
450005
450005
450004
450004
450003
450003
450002
450002
450002
450002
450001
450001
450001
450001
450001
450001
450000
450000
450000
450000
450000
450000
450000
450000
450000
450000
450000
450000
450000
450000
450000
450000
450000
450000
450000
450000
450000
450000
450000
450000
450000
450000
450000
450000
450000
450000
450000
450000
450000
450000
2.63023e+06
2.48166e+06
2.34198e+06
2.2107e+06
2.08733e+06
1.97144e+06
1.86261e+06
1.76043e+06
1.66455e+06
1.57462e+06
1.4903e+06
1.41129e+06
1.3373e+06
1.26805e+06
1.20328e+06
1.14276e+06
1.08625e+06
1.03354e+06
984419
938694
896179
856700
820087
786182
754831
725887
699208
674659
652107
631428
612499
595203
579429
565066
552012
540169
529440
519737
510976
503076
495963
489566
483821
478667
474048
469913
466213
462907
459954
457318
454968
452873
451006
449343
447863
446547
445375
444334
443408
442584
441853
441203
440626
440114
439658
439254
438896
438577
438294
438043
437821
437623
437448
437292
437154
437032
436923
436827
436742
436666
436598
436539
436486
436439
436397
436361
436328
436299
436273
436250
436230
436212
436196
436182
436170
436159
436149
436140
436132
436125
436119
436114
436109
436105
436101
436098
436095
436093
436090
436088
436086
436085
436083
436082
436081
436080
436079
436078
436078
436077
436077
436076
436076
436075
436075
436075
436074
436074
436074
436074
436074
436074
436074
436073
436073
436073
436073
436073
436073
436073
436073
436073
436073
436073
436073
436073
436073
436073
436073
436073
436073
436073
436073
436073
436073
436073
436073
436073
436073
436073
436073
436073
436073
436073
436073
436073
436073
2.62796e+06
2.47925e+06
2.33943e+06
2.208e+06
2.08447e+06
1.96841e+06
1.8594e+06
1.75704e+06
1.66096e+06
1.57082e+06
1.48629e+06
1.40705e+06
1.33283e+06
1.26333e+06
1.19831e+06
1.13753e+06
1.08074e+06
1.02775e+06
978338
932314
889494
849704
812777
778554
746883
717618
690620
665753
642890
621904
602676
585090
569035
554403
541092
529004
518044
508124
499159
491069
483779
477220
471324
466032
461286
457035
453231
449829
446789
444076
441655
439496
437572
435859
434333
432975
431767
430692
429737
428887
428133
427462
426866
426337
425867
425450
425080
424751
424459
424200
423970
423766
423585
423424
423282
423155
423043
422943
422855
422777
422707
422646
422591
422543
422500
422462
422428
422398
422371
422348
422327
422308
422292
422277
422264
422253
422243
422234
422226
422219
422213
422207
422202
422198
422194
422190
422187
422185
422182
422180
422178
422177
422175
422174
422173
422172
422171
422170
422170
422169
422168
422168
422167
422167
422167
422166
422166
422166
422166
422166
422165
422165
422165
422165
422165
422165
422165
422165
422165
422165
422165
422165
422165
422164
422164
422164
422164
422164
422164
422164
422164
422164
422164
422164
422164
422164
422164
422164
422164
422164
422164
422164
422164
422164
422164
422164
422164
2.62576e+06
2.47692e+06
2.33696e+06
2.20538e+06
2.0817e+06
1.96548e+06
1.85629e+06
1.75376e+06
1.65749e+06
1.56715e+06
1.4824e+06
1.40295e+06
1.32849e+06
1.25876e+06
1.19349e+06
1.13245e+06
1.07539e+06
1.02212e+06
972425
926107
882987
842889
805650
771110
739120
709535
682217
657033
633855
612560
593029
575148
558807
543901
530326
517987
506789
496644
487468
479180
471707
464977
458924
453487
448609
444236
440321
436819
433688
430893
428397
426171
424187
422419
420844
419443
418195
417086
416099
415222
414442
413749
413134
412587
412102
411670
411288
410948
410646
410378
410141
409930
409743
409576
409429
409298
409182
409080
408988
408907
408836
408772
408715
408665
408621
408581
408546
408515
408488
408464
408442
408423
408406
408391
408377
408366
408355
408346
408338
408330
408324
408318
408313
408309
408305
408301
408298
408295
408293
408291
408289
408287
408285
408284
408283
408282
408281
408280
408279
408279
408278
408278
408277
408277
408276
408276
408276
408276
408275
408275
408275
408275
408275
408275
408275
408275
408274
408274
408274
408274
408274
408274
408274
408274
408274
408274
408274
408274
408274
408274
408274
408274
408274
408274
408274
408274
408274
408274
408274
408274
408274
408274
408274
408274
408274
408274
408274
2.62364e+06
2.47468e+06
2.33458e+06
2.20286e+06
2.07903e+06
1.96264e+06
1.85329e+06
1.75058e+06
1.65413e+06
1.56359e+06
1.47864e+06
1.39898e+06
1.3243e+06
1.25433e+06
1.18882e+06
1.12752e+06
1.07021e+06
1.01666e+06
966683
920076
876659
836258
798710
763856
731549
701645
674008
648504
625010
603403
583566
565386
548754
533567
519723
507125
495682
485305
475910
467418
459753
452845
446628
441040
436022
431522
427491
423882
420656
417773
415198
412901
410853
409027
407401
405953
404664
403517
402497
401590
400784
400068
399431
398866
398363
397917
397521
397170
396857
396580
396334
396116
395922
395750
395598
395463
395343
395236
395142
395058
394984
394918
394859
394807
394761
394721
394684
394652
394624
394599
394576
394556
394539
394523
394509
394497
394486
394477
394468
394461
394454
394448
394443
394438
394434
394430
394427
394424
394422
394419
394417
394416
394414
394413
394412
394410
394409
394409
394408
394407
394407
394406
394406
394405
394405
394405
394404
394404
394404
394404
394404
394403
394403
394403
394403
394403
394403
394403
394403
394403
394403
394403
394403
394403
394403
394402
394402
394402
394402
394402
394402
394402
394402
394402
394402
394402
394402
394402
394402
394402
394402
394402
394402
394402
394402
394402
394402
2.6216e+06
2.47251e+06
2.33228e+06
2.20042e+06
2.07644e+06
1.95991e+06
1.85039e+06
1.74751e+06
1.65088e+06
1.56015e+06
1.47501e+06
1.39513e+06
1.32024e+06
1.25004e+06
1.18429e+06
1.12275e+06
1.06518e+06
1.01137e+06
961114
914223
870514
829815
791960
756796
724174
693953
665996
640174
616362
594440
574293
555810
538883
523410
509289
496427
484731
474115
464494
455789
447925
440832
434443
428696
423532
418898
414744
411024
407695
404720
402062
399689
397573
395686
394005
392507
391174
389988
388932
387993
387159
386417
385758
385173
384652
384190
383780
383416
383093
382805
382551
382325
382124
381946
381788
381648
381523
381413
381315
381228
381151
381083
381022
380968
380921
380879
380841
380808
380778
380752
380729
380708
380690
380674
380660
380647
380636
380626
380617
380609
380602
380596
380591
380586
380582
380578
380574
380571
380569
380566
380564
380562
380561
380560
380558
380557
380556
380555
380554
380554
380553
380553
380552
380552
380551
380551
380551
380551
380550
380550
380550
380550
380550
380550
380549
380549
380549
380549
380549
380549
380549
380549
380549
380549
380549
380549
380549
380549
380549
380549
380549
380549
380549
380549
380549
380549
380549
380549
380549
380549
380549
380549
380549
380549
380549
380549
380549
2.61962e+06
2.47041e+06
2.33006e+06
2.19807e+06
2.07395e+06
1.95727e+06
1.8476e+06
1.74455e+06
1.64774e+06
1.55684e+06
1.4715e+06
1.39142e+06
1.31632e+06
1.2459e+06
1.17992e+06
1.11813e+06
1.06031e+06
1.00624e+06
955720
908551
864556
823562
785406
749935
717001
686463
658188
632047
607917
585680
565221
546431
529204
513439
499036
485903
473948
463084
453229
444303
436232
428946
422377
416463
411146
406371
402087
398249
394813
391739
388993
386540
384351
382399
380659
379109
377728
376500
375406
374434
373569
372800
372117
371510
370971
370491
370066
369688
369353
369055
368791
368556
368348
368163
367999
367854
367725
367610
367509
367419
367339
367268
367205
367149
367100
367056
367017
366983
366952
366925
366901
366880
366861
366844
366829
366816
366804
366794
366785
366777
366769
366763
366757
366752
366748
366744
366740
366737
366735
366732
366730
366728
366727
366725
366724
366723
366722
366721
366720
366719
366718
366718
366717
366717
366717
366716
366716
366716
366715
366715
366715
366715
366715
366715
366715
366714
366714
366714
366714
366714
366714
366714
366714
366714
366714
366714
366714
366714
366714
366714
366714
366714
366714
366714
366714
366714
366714
366714
366714
366714
366714
366714
366714
366714
366714
366714
366714
2.61773e+06
2.4684e+06
2.32793e+06
2.19581e+06
2.07156e+06
1.95473e+06
1.84491e+06
1.7417e+06
1.64472e+06
1.55364e+06
1.46812e+06
1.38785e+06
1.31253e+06
1.2419e+06
1.1757e+06
1.11368e+06
1.05561e+06
1.00129e+06
950505
903063
858787
817503
779051
743277
710034
679183
650592
624133
599684
577129
556356
537256
519726
503664
488974
475562
463340
452221
442124
432970
424684
417196
410439
404350
398872
393948
389528
385564
382014
378837
375996
373458
371192
369170
367368
365761
364330
363056
361922
360913
360016
359218
358509
357879
357319
356822
356380
355988
355639
355330
355055
354812
354596
354404
354233
354082
353948
353829
353724
353630
353547
353473
353408
353350
353299
353253
353213
353177
353145
353117
353092
353070
353050
353033
353017
353004
352992
352981
352971
352963
352955
352949
352943
352938
352933
352929
352925
352922
352919
352917
352915
352913
352911
352909
352908
352907
352906
352905
352904
352903
352902
352902
352901
352901
352900
352900
352900
352900
352899
352899
352899
352899
352899
352898
352898
352898
352898
352898
352898
352898
352898
352898
352898
352898
352898
352898
352898
352898
352898
352898
352898
352898
352898
352898
352898
352898
352898
352898
352898
352898
352898
352898
352898
352898
352898
352898
352898
2.6159e+06
2.46647e+06
2.32587e+06
2.19363e+06
2.06925e+06
1.95228e+06
1.84232e+06
1.73895e+06
1.64182e+06
1.55056e+06
1.46486e+06
1.3844e+06
1.30889e+06
1.23805e+06
1.17163e+06
1.10938e+06
1.05108e+06
996512
945468
897761
853209
811642
772898
736825
703277
672117
643211
616436
591669
568797
547707
528295
510457
494093
479110
465415
452919
441538
431190
421799
413289
405591
398637
392365
386717
381636
377072
372976
369305
366017
363076
360447
358099
356003
354133
352466
350981
349658
348481
347433
346501
345672
344935
344280
343698
343181
342721
342313
341951
341629
341344
341090
340865
340666
340489
340331
340192
340068
339958
339861
339775
339698
339630
339570
339516
339469
339427
339389
339356
339327
339301
339278
339258
339239
339223
339209
339197
339185
339175
339167
339159
339152
339146
339140
339136
339131
339128
339124
339121
339119
339116
339114
339112
339111
339109
339108
339107
339106
339105
339104
339104
339103
339103
339102
339102
339101
339101
339101
339101
339100
339100
339100
339100
339100
339100
339099
339099
339099
339099
339099
339099
339099
339099
339099
339099
339099
339099
339099
339099
339099
339099
339099
339099
339099
339099
339099
339099
339099
339099
339099
339099
339099
339099
339099
339099
339099
339099
2.61415e+06
2.46461e+06
2.32391e+06
2.19154e+06
2.06704e+06
1.94994e+06
1.83983e+06
1.73632e+06
1.63903e+06
1.54761e+06
1.46173e+06
1.38109e+06
1.30539e+06
1.23435e+06
1.16772e+06
1.10525e+06
1.04672e+06
991907
940614
892647
847826
805981
766952
730585
696737
665270
636054
608964
583880
560690
539284
519557
501408
484739
469457
455472
442695
431044
420439
410802
402059
394141
386982
380519
374691
369445
364729
360493
356693
353288
350240
347514
345078
342902
340960
339229
337685
336310
335086
333996
333026
332164
331397
330715
330109
329570
329092
328667
328290
327955
327658
327393
327159
326951
326766
326603
326457
326328
326214
326112
326022
325943
325872
325809
325753
325704
325660
325621
325586
325556
325529
325505
325483
325465
325448
325433
325420
325408
325398
325389
325381
325373
325367
325361
325356
325352
325348
325345
325341
325339
325336
325334
325332
325331
325329
325328
325327
325326
325325
325324
325323
325323
325322
325322
325321
325321
325320
325320
325320
325320
325319
325319
325319
325319
325319
325319
325319
325319
325318
325318
325318
325318
325318
325318
325318
325318
325318
325318
325318
325318
325318
325318
325318
325318
325318
325318
325318
325318
325318
325318
325318
325318
325318
325318
325318
325318
325318
2.61247e+06
2.46283e+06
2.32202e+06
2.18954e+06
2.06491e+06
1.94769e+06
1.83745e+06
1.73379e+06
1.63635e+06
1.54477e+06
1.45873e+06
1.37791e+06
1.30203e+06
1.23079e+06
1.16396e+06
1.10128e+06
1.04252e+06
987479
935943
887724
842641
800525
761217
724562
690419
658650
629126
601724
576326
552819
531096
511053
492590
475613
460027
445746
432683
420755
409883
399992
391007
382861
375487
368822
362807
357387
352508
348124
344188
340658
337496
334666
332135
329874
327856
326054
324448
323017
321742
320607
319596
318697
317898
317187
316555
315994
315495
315052
314658
314308
313998
313722
313478
313261
313068
312897
312745
312611
312491
312385
312291
312208
312134
312068
312010
311959
311913
311872
311836
311804
311776
311751
311729
311709
311691
311676
311662
311650
311639
311630
311621
311614
311607
311601
311596
311591
311587
311584
311580
311578
311575
311573
311571
311569
311567
311566
311565
311564
311563
311562
311561
311561
311560
311560
311559
311559
311558
311558
311558
311558
311557
311557
311557
311557
311557
311557
311557
311556
311556
311556
311556
311556
311556
311556
311556
311556
311556
311556
311556
311556
311556
311556
311556
311556
311556
311556
311556
311556
311556
311556
311556
311556
311556
311556
311556
311556
311556
2.61087e+06
2.46113e+06
2.32022e+06
2.18763e+06
2.06289e+06
1.94554e+06
1.83517e+06
1.73138e+06
1.63379e+06
1.54206e+06
1.45586e+06
1.37487e+06
1.29881e+06
1.22739e+06
1.16035e+06
1.09747e+06
1.0385e+06
983229
931458
882994
837657
795277
755696
718760
684327
652262
622435
594724
569014
545192
523152
502792
484015
466725
450833
436251
422894
410682
399536
389382
380147
371763
364164
357288
351076
345471
340422
335880
331799
328136
324852
321911
319279
316926
314825
312948
311275
309782
308453
307268
306214
305276
304441
303699
303039
302452
301931
301467
301056
300691
300366
300078
299823
299596
299394
299215
299057
298916
298791
298680
298582
298495
298417
298349
298288
298234
298186
298143
298106
298072
298043
298017
297993
297973
297954
297938
297924
297911
297900
297890
297881
297873
297866
297860
297854
297850
297845
297841
297838
297835
297832
297830
297828
297826
297825
297823
297822
297821
297820
297819
297818
297817
297817
297816
297816
297815
297815
297815
297814
297814
297814
297814
297814
297813
297813
297813
297813
297813
297813
297813
297813
297813
297813
297813
297813
297813
297813
297813
297813
297813
297813
297813
297812
297812
297812
297812
297812
297812
297812
297812
297812
297812
297812
297812
297812
297812
297812
2.60934e+06
2.45951e+06
2.31849e+06
2.1858e+06
2.06095e+06
1.94348e+06
1.83299e+06
1.72907e+06
1.63135e+06
1.53947e+06
1.45311e+06
1.37196e+06
1.29573e+06
1.22413e+06
1.15691e+06
1.09382e+06
1.03465e+06
979159
927161
878460
832876
790240
750393
713182
678466
646110
615986
587971
561952
537817
515462
494786
475693
458089
441886
426999
413343
400840
389413
378988
369493
360862
353028
345931
339510
333712
328482
323772
319536
315731
312317
309257
306516
304065
301874
299917
298170
296612
295222
293985
292883
291901
291028
290252
289561
288947
288401
287916
287486
287103
286763
286461
286194
285956
285745
285557
285391
285244
285113
284997
284893
284802
284721
284649
284585
284529
284478
284434
284395
284360
284328
284301
284277
284255
284236
284219
284204
284190
284179
284168
284159
284151
284143
284137
284131
284126
284121
284117
284114
284111
284108
284106
284103
284102
284100
284098
284097
284096
284095
284094
284093
284092
284092
284091
284091
284090
284090
284089
284089
284089
284089
284088
284088
284088
284088
284088
284088
284088
284088
284088
284087
284087
284087
284087
284087
284087
284087
284087
284087
284087
284087
284087
284087
284087
284087
284087
284087
284087
284087
284087
284087
284087
284087
284087
284087
284087
284087
2.60788e+06
2.45796e+06
2.31685e+06
2.18406e+06
2.0591e+06
1.94153e+06
1.83091e+06
1.72687e+06
1.62901e+06
1.537e+06
1.4505e+06
1.36919e+06
1.29279e+06
1.22102e+06
1.15362e+06
1.09034e+06
1.03097e+06
975270
923053
874123
828300
785416
745311
707834
672842
640202
609785
581472
555148
530704
508036
487045
467636
449717
433201
418004
404045
391245
379529
368824
359061
350173
342095
334765
328126
322123
316702
311815
307414
303457
299903
296714
293857
291299
289011
286966
285140
283510
282057
280761
279607
278579
277664
276850
276126
275482
274909
274400
273948
273547
273190
272873
272592
272343
272121
271924
271750
271595
271457
271335
271227
271131
271046
270970
270903
270844
270791
270744
270703
270666
270633
270604
270579
270556
270536
270518
270502
270488
270476
270465
270455
270446
270439
270432
270426
270421
270416
270412
270408
270405
270402
270399
270397
270395
270393
270392
270390
270389
270388
270387
270386
270385
270385
270384
270383
270383
270383
270382
270382
270382
270381
270381
270381
270381
270381
270381
270380
270380
270380
270380
270380
270380
270380
270380
270380
270380
270380
270380
270380
270380
270380
270380
270380
270380
270380
270380
270380
270380
270380
270380
270380
270380
270380
270380
270380
270380
270380
2.6065e+06
2.45649e+06
2.3153e+06
2.18241e+06
2.05735e+06
1.93967e+06
1.82894e+06
1.72478e+06
1.6268e+06
1.53465e+06
1.44801e+06
1.36655e+06
1.29e+06
1.21806e+06
1.15049e+06
1.08703e+06
1.02746e+06
971564
919136
869986
823933
780809
740454
702718
667459
634541
603840
575235
548611
523862
500885
479581
459857
441622
424792
409283
395015
381913
369901
358910
348869
339714
331381
323809
316941
310722
305099
300022
295445
291326
287622
284296
281313
278640
276247
274107
272194
270486
268962
267603
266392
265313
264352
263497
262736
262059
261457
260922
260447
260024
259649
259316
259020
258757
258524
258317
258133
257970
257825
257696
257583
257481
257392
257312
257242
257179
257123
257074
257031
256992
256958
256927
256900
256876
256855
256836
256820
256805
256792
256780
256770
256761
256753
256745
256739
256733
256728
256724
256720
256717
256714
256711
256709
256706
256705
256703
256701
256700
256699
256698
256697
256696
256696
256695
256694
256694
256693
256693
256693
256692
256692
256692
256692
256692
256691
256691
256691
256691
256691
256691
256691
256691
256691
256691
256691
256691
256691
256691
256691
256691
256690
256690
256690
256690
256690
256690
256690
256690
256690
256690
256690
256690
256690
256690
256690
256690
256690
2.60519e+06
2.4551e+06
2.31382e+06
2.18084e+06
2.05569e+06
1.93791e+06
1.82707e+06
1.7228e+06
1.6247e+06
1.53242e+06
1.44565e+06
1.36405e+06
1.28735e+06
1.21525e+06
1.14751e+06
1.08388e+06
1.02413e+06
968041
915412
866051
819777
776422
735827
697841
662321
629135
598157
569265
542349
517301
494018
472404
452368
433819
416673
400850
386271
372862
360549
349263
338937
329506
320908
313083
305974
299527
293689
288412
283648
279355
275490
272016
268896
266098
263592
261348
259341
257548
255947
254519
253245
252110
251098
250198
249396
248683
248049
247485
246983
246538
246142
245791
245478
245201
244955
244736
244542
244370
244217
244082
243961
243855
243760
243676
243601
243535
243477
243425
243378
243338
243301
243269
243241
243215
243193
243173
243155
243140
243126
243114
243103
243093
243085
243077
243070
243065
243059
243055
243051
243047
243044
243041
243038
243036
243034
243032
243031
243029
243028
243027
243026
243025
243025
243024
243023
243023
243022
243022
243022
243021
243021
243021
243021
243020
243020
243020
243020
243020
243020
243020
243020
243020
243019
243019
243019
243019
243019
243019
243019
243019
243019
243019
243019
243019
243019
243019
243019
243019
243019
243019
243019
243019
243019
243019
243019
243019
243019
2.60395e+06
2.45379e+06
2.31243e+06
2.17937e+06
2.05412e+06
1.93624e+06
1.82531e+06
1.72092e+06
1.62271e+06
1.53032e+06
1.44341e+06
1.36169e+06
1.28484e+06
1.2126e+06
1.1447e+06
1.0809e+06
1.02098e+06
964704
911882
862319
815834
772258
731431
693204
657434
623988
592741
563572
536370
511029
487447
465528
445182
426320
408860
392723
377831
364110
351491
339904
329285
319569
310696
302607
295247
288560
282496
277005
272042
267562
263525
259890
256623
253690
251060
248703
246594
244707
243022
241517
240174
238976
237909
236958
236112
235358
234688
234092
233562
233091
232672
232300
231970
231676
231416
231184
230979
230797
230635
230491
230364
230251
230151
230062
229983
229913
229850
229795
229747
229703
229665
229631
229601
229574
229550
229529
229510
229494
229479
229466
229455
229444
229435
229427
229420
229414
229408
229404
229399
229395
229392
229389
229386
229384
229382
229380
229378
229377
229375
229374
229373
229372
229372
229371
229370
229370
229369
229369
229368
229368
229368
229368
229367
229367
229367
229367
229367
229367
229367
229366
229366
229366
229366
229366
229366
229366
229366
229366
229366
229366
229366
229366
229366
229366
229366
229366
229366
229366
229366
229366
229366
229366
229366
229366
229366
229366
229366
2.60279e+06
2.45255e+06
2.31111e+06
2.17797e+06
2.05264e+06
1.93467e+06
1.82365e+06
1.71916e+06
1.62084e+06
1.52833e+06
1.44131e+06
1.35945e+06
1.28248e+06
1.21009e+06
1.14205e+06
1.07809e+06
1.018e+06
961554
908549
858793
812105
768318
727271
688813
652802