/*--------------------------------*- C++ -*----------------------------------*\
| =========                 |                                                 |
| \\      /  F ield         | OpenFOAM: The Open Source CFD Toolbox           |
|  \\    /   O peration     | Version:  2.3.1                                 |
|   \\  /    A nd           | Web:      www.OpenFOAM.org                      |
|    \\/     M anipulation  |                                                 |
\*---------------------------------------------------------------------------*/
FoamFile
{
    version     2.0;
    format      ascii;
    class       volScalarField;
    location    "0";
    object      y;
}
// * * * * * * * * * * * * * * * * * * * * * * * * * * * * * * * * * * * * * //

dimensions      [0 1 0 0 0 0 0];

internalField   nonuniform List<scalar> 
34402
(
2.00442
1.93549
1.86914
1.80525
1.74377
1.68459
1.62765
1.57286
1.52016
1.46947
1.42073
1.37386
1.32881
1.28551
1.24391
1.20394
1.16557
1.12872
1.09335
1.05942
1.02686
0.995647
0.965725
0.937053
0.909589
0.883294
0.858129
0.834056
0.811038
0.78904
0.768027
0.747966
0.728824
0.710568
0.693168
0.676594
0.660817
0.645807
0.631535
0.617975
0.605099
0.592882
0.581296
0.570318
0.559922
0.550084
0.54078
0.531989
0.523686
0.51585
0.508461
0.501496
0.494936
0.488761
0.482953
0.477493
0.472363
0.467545
0.463025
0.458785
0.45481
0.451086
0.447599
0.444334
0.44128
0.438424
0.435753
0.433259
0.430929
0.428753
0.426723
0.424828
0.423061
0.421413
0.419878
0.418446
0.417113
0.415872
0.414716
0.41364
0.412638
0.411706
0.410839
0.410033
0.409284
0.408587
0.407939
0.407337
0.406778
0.406259
0.405776
0.405328
0.404912
0.404526
0.404168
0.403835
0.403526
0.40324
0.402975
0.402729
0.4025
0.402289
0.402093
0.401911
0.401743
0.401587
0.401442
0.401309
0.401185
0.40107
0.400964
0.400866
0.400776
0.400692
0.400614
0.400543
0.400476
0.400415
0.400359
0.400307
0.400259
0.400215
0.400174
0.400136
0.400101
0.400069
0.40004
0.400013
0.399988
0.399965
0.399944
0.399925
0.399908
0.399891
0.399877
0.399863
0.399851
0.399839
0.399829
0.39982
0.399811
0.399803
0.399796
0.39979
0.399784
0.399779
0.399774
0.39977
0.399766
0.399763
0.39976
0.399757
0.399754
0.399752
0.39975
0.399749
0.399747
0.399746
0.399745
0.399744
0.399744
0.399743
0.399743
0.399742
0.399742
0.399742
0.399742
2.00236
1.93335
1.86692
1.80296
1.74139
1.68213
1.6251
1.57022
1.51743
1.46665
1.4178
1.37084
1.32568
1.28228
1.24057
1.2005
1.162
1.12504
1.08956
1.0555
1.02282
0.991474
0.961422
0.932618
0.905019
0.878588
0.853284
0.829071
0.80591
0.783768
0.76261
0.742403
0.723113
0.704709
0.687161
0.670439
0.654513
0.639355
0.624936
0.611229
0.598208
0.585847
0.57412
0.563002
0.552468
0.542495
0.533059
0.524138
0.515709
0.50775
0.500241
0.49316
0.486487
0.480204
0.474291
0.46873
0.463503
0.458592
0.453983
0.449658
0.445601
0.4418
0.438238
0.434903
0.431782
0.428863
0.426133
0.423582
0.421198
0.418972
0.416894
0.414954
0.413145
0.411458
0.409885
0.408419
0.407053
0.40578
0.404595
0.403492
0.402465
0.40151
0.400621
0.399794
0.399026
0.398311
0.397646
0.397029
0.396455
0.395922
0.395427
0.394967
0.39454
0.394144
0.393776
0.393435
0.393118
0.392824
0.392552
0.392299
0.392065
0.391848
0.391646
0.39146
0.391287
0.391127
0.390978
0.390841
0.390714
0.390596
0.390488
0.390387
0.390294
0.390208
0.390128
0.390055
0.389987
0.389924
0.389866
0.389813
0.389763
0.389718
0.389676
0.389637
0.389602
0.389569
0.389539
0.389511
0.389485
0.389462
0.38944
0.389421
0.389403
0.389386
0.389371
0.389357
0.389344
0.389333
0.389322
0.389312
0.389303
0.389295
0.389288
0.389282
0.389276
0.38927
0.389265
0.389261
0.389257
0.389254
0.389251
0.389248
0.389245
0.389243
0.389241
0.38924
0.389238
0.389237
0.389236
0.389235
0.389234
0.389234
0.389233
0.389233
0.389232
0.389232
0.389232
2.00034
1.93127
1.86476
1.80072
1.73907
1.67973
1.62261
1.56765
1.51477
1.4639
1.41496
1.3679
1.32264
1.27913
1.23732
1.19713
1.15853
1.12145
1.08585
1.05167
1.01887
0.987401
0.957221
0.928286
0.900555
0.873989
0.848548
0.824195
0.800894
0.778609
0.757307
0.736954
0.717518
0.698967
0.681271
0.664401
0.648326
0.63302
0.618454
0.6046
0.591433
0.578927
0.567057
0.555797
0.545125
0.535014
0.525444
0.516391
0.507834
0.49975
0.492118
0.484919
0.478132
0.471737
0.465716
0.460051
0.454725
0.449719
0.445017
0.440604
0.436463
0.432581
0.428944
0.425536
0.422346
0.419361
0.416568
0.413958
0.411519
0.40924
0.407112
0.405126
0.403273
0.401544
0.399932
0.398429
0.397029
0.395724
0.394509
0.393377
0.392324
0.391344
0.390432
0.389584
0.388795
0.388061
0.387379
0.386745
0.386156
0.385609
0.3851
0.384628
0.38419
0.383783
0.383405
0.383054
0.382729
0.382427
0.382147
0.381888
0.381647
0.381424
0.381217
0.381026
0.380848
0.380683
0.380531
0.38039
0.380259
0.380139
0.380027
0.379923
0.379828
0.379739
0.379657
0.379582
0.379512
0.379448
0.379388
0.379333
0.379282
0.379236
0.379193
0.379153
0.379116
0.379083
0.379052
0.379023
0.378997
0.378973
0.378951
0.37893
0.378912
0.378895
0.378879
0.378865
0.378852
0.37884
0.378829
0.378819
0.37881
0.378802
0.378794
0.378788
0.378781
0.378776
0.378771
0.378766
0.378762
0.378759
0.378756
0.378753
0.37875
0.378748
0.378746
0.378744
0.378743
0.378741
0.37874
0.378739
0.378739
0.378738
0.378738
0.378737
0.378737
0.378737
0.378737
1.99838
1.92924
1.86266
1.79854
1.73682
1.6774
1.6202
1.56515
1.51218
1.46122
1.41219
1.36503
1.31968
1.27607
1.23415
1.19386
1.15515
1.11796
1.08224
1.04794
1.01502
0.983428
0.953122
0.924059
0.896198
0.869498
0.843922
0.819431
0.79599
0.773564
0.75212
0.731622
0.712041
0.693343
0.6755
0.658482
0.642259
0.626805
0.61209
0.59809
0.584776
0.572125
0.56011
0.548708
0.537895
0.527646
0.51794
0.508753
0.500065
0.491853
0.484098
0.476777
0.469872
0.463364
0.457233
0.451461
0.446032
0.440927
0.436131
0.431627
0.4274
0.423434
0.419717
0.416234
0.412972
0.409919
0.407062
0.40439
0.401892
0.399559
0.397379
0.395344
0.393445
0.391673
0.39002
0.388479
0.387042
0.385704
0.384457
0.383296
0.382215
0.381209
0.380272
0.379401
0.378591
0.377838
0.377137
0.376486
0.375881
0.375319
0.374796
0.374311
0.373861
0.373443
0.373054
0.372694
0.37236
0.372049
0.371762
0.371495
0.371247
0.371018
0.370805
0.370608
0.370426
0.370257
0.3701
0.369955
0.369821
0.369696
0.369581
0.369475
0.369377
0.369286
0.369202
0.369124
0.369052
0.368986
0.368925
0.368868
0.368816
0.368768
0.368724
0.368683
0.368645
0.36861
0.368579
0.368549
0.368522
0.368498
0.368475
0.368454
0.368435
0.368417
0.368401
0.368386
0.368373
0.368361
0.36835
0.368339
0.36833
0.368322
0.368314
0.368307
0.368301
0.368295
0.36829
0.368285
0.368281
0.368277
0.368274
0.368271
0.368269
0.368266
0.368264
0.368262
0.368261
0.36826
0.368258
0.368258
0.368257
0.368256
0.368256
0.368255
0.368255
0.368255
0.368255
1.99648
1.92727
1.86061
1.79643
1.73463
1.67513
1.61785
1.56272
1.50967
1.45862
1.4095
1.36224
1.31679
1.27309
1.23106
1.19067
1.15185
1.11455
1.07872
1.04431
1.01127
0.979557
0.949127
0.919938
0.891947
0.865117
0.839407
0.814781
0.791202
0.768636
0.74705
0.72641
0.706684
0.687841
0.669851
0.652685
0.636315
0.620712
0.60585
0.591702
0.578241
0.565444
0.553284
0.541738
0.530783
0.520394
0.51055
0.501228
0.492407
0.484066
0.476183
0.468739
0.461714
0.455089
0.448845
0.442964
0.437429
0.432223
0.427329
0.422731
0.418414
0.414363
0.410564
0.407002
0.403665
0.400541
0.397617
0.394881
0.392323
0.389932
0.387698
0.385612
0.383665
0.381847
0.380151
0.37857
0.377096
0.375722
0.374442
0.37325
0.37214
0.371106
0.370144
0.369249
0.368417
0.367643
0.366923
0.366253
0.365631
0.365053
0.364516
0.364017
0.363554
0.363124
0.362725
0.362354
0.36201
0.361691
0.361395
0.361121
0.360866
0.36063
0.360411
0.360209
0.360021
0.359847
0.359686
0.359536
0.359398
0.35927
0.359152
0.359043
0.358941
0.358848
0.358761
0.358681
0.358607
0.358539
0.358476
0.358418
0.358364
0.358315
0.358269
0.358227
0.358189
0.358153
0.35812
0.35809
0.358062
0.358037
0.358013
0.357992
0.357972
0.357954
0.357937
0.357922
0.357908
0.357896
0.357884
0.357874
0.357864
0.357856
0.357848
0.35784
0.357834
0.357828
0.357823
0.357818
0.357814
0.35781
0.357807
0.357804
0.357801
0.357799
0.357796
0.357795
0.357793
0.357792
0.357791
0.35779
0.357789
0.357788
0.357788
0.357787
0.357787
0.357787
0.357787
1.99463
1.92535
1.85863
1.79438
1.7325
1.67293
1.61557
1.56036
1.50723
1.45609
1.40688
1.35954
1.31399
1.27019
1.22807
1.18757
1.14865
1.11124
1.0753
1.04077
1.00762
0.975787
0.945236
0.915923
0.887805
0.860846
0.835005
0.810245
0.78653
0.763826
0.7421
0.721318
0.701449
0.682461
0.664326
0.647014
0.630496
0.614746
0.599736
0.58544
0.571832
0.558888
0.546582
0.534892
0.523793
0.513263
0.503279
0.49382
0.484865
0.476391
0.468379
0.460809
0.453661
0.446916
0.440557
0.434564
0.428921
0.42361
0.418615
0.413921
0.40951
0.40537
0.401486
0.397843
0.394429
0.391231
0.388237
0.385434
0.382813
0.380363
0.378072
0.375933
0.373935
0.37207
0.370329
0.368706
0.367192
0.365781
0.364466
0.363241
0.3621
0.361038
0.360049
0.359129
0.358273
0.357477
0.356736
0.356048
0.355408
0.354813
0.354261
0.353748
0.353271
0.352828
0.352417
0.352036
0.351682
0.351353
0.351049
0.350766
0.350504
0.350261
0.350036
0.349827
0.349634
0.349454
0.349288
0.349135
0.348993
0.348861
0.348739
0.348626
0.348522
0.348426
0.348336
0.348254
0.348178
0.348108
0.348043
0.347983
0.347928
0.347877
0.34783
0.347787
0.347747
0.34771
0.347676
0.347645
0.347616
0.34759
0.347566
0.347544
0.347524
0.347505
0.347488
0.347472
0.347458
0.347445
0.347433
0.347422
0.347413
0.347404
0.347395
0.347388
0.347381
0.347375
0.34737
0.347365
0.347361
0.347357
0.347353
0.34735
0.347347
0.347345
0.347343
0.347341
0.347339
0.347338
0.347337
0.347336
0.347335
0.347334
0.347334
0.347333
0.347333
0.347333
0.347333
1.99284
1.9235
1.85671
1.79239
1.73044
1.67079
1.61336
1.55807
1.50485
1.45363
1.40434
1.35691
1.31127
1.26737
1.22515
1.18456
1.14553
1.10802
1.07197
1.03734
1.00407
0.972119
0.94145
0.912014
0.883773
0.856686
0.830716
0.805824
0.781975
0.759136
0.737271
0.716349
0.696338
0.677207
0.658927
0.641469
0.624805
0.608908
0.59375
0.579306
0.565551
0.55246
0.540008
0.528172
0.516929
0.506256
0.496131
0.486534
0.477441
0.468833
0.46069
0.452991
0.445718
0.438851
0.432373
0.426265
0.420511
0.415092
0.409994
0.405199
0.400693
0.396461
0.392489
0.388762
0.385267
0.381992
0.378925
0.376053
0.373366
0.370853
0.368504
0.366308
0.364258
0.362343
0.360555
0.358888
0.357333
0.355882
0.354531
0.353271
0.352098
0.351006
0.349989
0.349042
0.348161
0.347342
0.346579
0.345871
0.345212
0.3446
0.344031
0.343502
0.343011
0.342555
0.342132
0.341739
0.341374
0.341036
0.340722
0.340431
0.340161
0.33991
0.339678
0.339463
0.339264
0.339079
0.338908
0.33875
0.338603
0.338468
0.338342
0.338226
0.338118
0.338019
0.337927
0.337842
0.337764
0.337691
0.337624
0.337563
0.337506
0.337453
0.337405
0.33736
0.337319
0.337281
0.337246
0.337214
0.337185
0.337158
0.337133
0.33711
0.337089
0.33707
0.337052
0.337036
0.337022
0.337008
0.336996
0.336985
0.336975
0.336965
0.336957
0.336949
0.336942
0.336936
0.336931
0.336926
0.336921
0.336917
0.336913
0.33691
0.336907
0.336905
0.336903
0.336901
0.336899
0.336898
0.336896
0.336895
0.336894
0.336894
0.336893
0.336893
0.336892
0.336892
0.336892
1.99111
1.9217
1.85485
1.79045
1.72844
1.66872
1.61122
1.55585
1.50255
1.45125
1.40187
1.35436
1.30863
1.26464
1.22233
1.18164
1.14251
1.1049
1.06874
1.034
1.00062
0.968555
0.937769
0.908215
0.879851
0.85264
0.826543
0.801521
0.77754
0.754566
0.732565
0.711505
0.691354
0.672081
0.653658
0.636055
0.619246
0.603202
0.587897
0.573306
0.559403
0.546164
0.533565
0.521583
0.510195
0.499378
0.489111
0.479373
0.470142
0.461398
0.453121
0.445292
0.437891
0.430899
0.4243
0.418074
0.412205
0.406676
0.40147
0.396573
0.391968
0.38764
0.383577
0.379762
0.376184
0.372829
0.369686
0.366742
0.363986
0.361408
0.358997
0.356743
0.354637
0.352669
0.350833
0.349119
0.34752
0.346029
0.344638
0.343343
0.342135
0.341011
0.339964
0.338989
0.338082
0.337238
0.336453
0.335723
0.335044
0.334414
0.333827
0.333283
0.332777
0.332307
0.33187
0.331465
0.331089
0.33074
0.330416
0.330116
0.329838
0.329579
0.32934
0.329118
0.328913
0.328722
0.328546
0.328382
0.328231
0.328091
0.327962
0.327842
0.327731
0.327628
0.327533
0.327446
0.327365
0.32729
0.327221
0.327157
0.327099
0.327045
0.326995
0.326948
0.326906
0.326867
0.326831
0.326798
0.326768
0.32674
0.326714
0.32669
0.326669
0.326649
0.326631
0.326614
0.326599
0.326585
0.326573
0.326561
0.326551
0.326541
0.326532
0.326525
0.326518
0.326511
0.326505
0.3265
0.326495
0.326491
0.326488
0.326484
0.326481
0.326479
0.326476
0.326474
0.326473
0.326471
0.32647
0.326469
0.326468
0.326467
0.326467
0.326466
0.326466
0.326466
0.326466
1.98943
1.91996
1.85304
1.78859
1.7265
1.66672
1.60914
1.5537
1.50033
1.44894
1.39949
1.35188
1.30607
1.26199
1.21959
1.1788
1.13958
1.10187
1.06561
1.03076
0.997268
0.965095
0.934195
0.904524
0.876041
0.848708
0.822485
0.797337
0.773226
0.75012
0.727985
0.706788
0.686498
0.667085
0.64852
0.630774
0.61382
0.597631
0.582179
0.567441
0.553391
0.540005
0.527258
0.51513
0.503596
0.492634
0.482224
0.472343
0.462972
0.45409
0.445678
0.437715
0.430184
0.423065
0.416341
0.409994
0.404008
0.398365
0.39305
0.388046
0.383339
0.378913
0.374754
0.370849
0.367184
0.363746
0.360524
0.357504
0.354677
0.35203
0.349554
0.347239
0.345075
0.343053
0.341165
0.339402
0.337757
0.336223
0.334791
0.333457
0.332214
0.331056
0.329978
0.328973
0.328039
0.327169
0.32636
0.325607
0.324907
0.324256
0.323652
0.32309
0.322568
0.322083
0.321633
0.321215
0.320827
0.320467
0.320132
0.319823
0.319535
0.319269
0.319021
0.318792
0.31858
0.318383
0.318201
0.318033
0.317876
0.317732
0.317598
0.317474
0.31736
0.317254
0.317156
0.317066
0.316982
0.316905
0.316834
0.316768
0.316707
0.316651
0.316599
0.316552
0.316508
0.316468
0.316431
0.316396
0.316365
0.316336
0.31631
0.316285
0.316263
0.316243
0.316224
0.316207
0.316191
0.316177
0.316164
0.316152
0.316141
0.316131
0.316122
0.316114
0.316107
0.3161
0.316094
0.316089
0.316084
0.31608
0.316076
0.316072
0.316069
0.316067
0.316064
0.316062
0.31606
0.316059
0.316058
0.316056
0.316056
0.316055
0.316054
0.316054
0.316054
0.316053
0.316053
1.9878
1.91827
1.8513
1.78678
1.72463
1.66477
1.60713
1.55162
1.49817
1.44671
1.39717
1.34949
1.30359
1.25943
1.21694
1.17606
1.13674
1.09893
1.06257
1.02762
0.994021
0.96174
0.930728
0.900943
0.872343
0.84489
0.818546
0.793272
0.769034
0.745798
0.723531
0.7022
0.681773
0.662222
0.643516
0.625629
0.608531
0.592197
0.5766
0.561715
0.547518
0.533985
0.521091
0.508816
0.497136
0.486028
0.475473
0.465449
0.455937
0.446915
0.438364
0.430267
0.422602
0.415354
0.408503
0.402033
0.395926
0.390166
0.384738
0.379625
0.374811
0.370283
0.366027
0.362027
0.358272
0.354748
0.351443
0.348345
0.345442
0.342725
0.340181
0.337802
0.335577
0.333497
0.331554
0.32974
0.328047
0.326467
0.324993
0.323618
0.322337
0.321143
0.320031
0.318996
0.318032
0.317134
0.3163
0.315523
0.314801
0.314129
0.313505
0.312925
0.312386
0.311885
0.31142
0.310988
0.310588
0.310216
0.30987
0.30955
0.309253
0.308978
0.308722
0.308486
0.308266
0.308063
0.307875
0.307701
0.307539
0.30739
0.307251
0.307123
0.307005
0.306896
0.306794
0.306701
0.306614
0.306535
0.306461
0.306393
0.30633
0.306272
0.306219
0.30617
0.306124
0.306083
0.306044
0.306009
0.305977
0.305947
0.305919
0.305894
0.305871
0.30585
0.305831
0.305813
0.305797
0.305782
0.305768
0.305756
0.305745
0.305735
0.305726
0.305717
0.30571
0.305703
0.305697
0.305691
0.305686
0.305682
0.305678
0.305674
0.305671
0.305668
0.305666
0.305664
0.305662
0.30566
0.305659
0.305658
0.305657
0.305656
0.305655
0.305655
0.305655
0.305654
0.305654
1.98623
1.91665
1.84961
1.78503
1.72282
1.6629
1.60519
1.54961
1.49609
1.44455
1.39494
1.34718
1.3012
1.25695
1.21437
1.1734
1.13399
1.09608
1.05963
1.02457
0.990877
0.95849
0.92737
0.897473
0.868759
0.841189
0.814725
0.789329
0.764966
0.741603
0.719205
0.697742
0.677181
0.657493
0.638649
0.620621
0.603382
0.586904
0.571163
0.556133
0.541789
0.528109
0.515069
0.502646
0.490819
0.479565
0.468864
0.458696
0.449041
0.439877
0.431188
0.422952
0.415153
0.407772
0.400792
0.394195
0.387965
0.382085
0.37654
0.371314
0.366392
0.361758
0.3574
0.353303
0.349454
0.345841
0.342449
0.339269
0.336288
0.333496
0.330882
0.328435
0.326146
0.324006
0.322006
0.320137
0.318393
0.316765
0.315245
0.313828
0.312507
0.311276
0.310128
0.309059
0.308064
0.307138
0.306276
0.305474
0.304727
0.304034
0.303389
0.302789
0.302232
0.301715
0.301234
0.300788
0.300373
0.299989
0.299632
0.2993
0.298993
0.298708
0.298444
0.298199
0.297972
0.297762
0.297567
0.297387
0.29722
0.297065
0.296922
0.29679
0.296667
0.296554
0.296449
0.296353
0.296263
0.296181
0.296104
0.296034
0.295969
0.295909
0.295854
0.295803
0.295756
0.295713
0.295673
0.295637
0.295603
0.295572
0.295544
0.295518
0.295494
0.295472
0.295452
0.295433
0.295417
0.295401
0.295387
0.295375
0.295363
0.295353
0.295343
0.295334
0.295327
0.295319
0.295313
0.295307
0.295302
0.295297
0.295293
0.29529
0.295286
0.295284
0.295281
0.295279
0.295277
0.295275
0.295274
0.295273
0.295272
0.295271
0.29527
0.29527
0.29527
0.295269
0.295269
1.98471
1.91508
1.84798
1.78334
1.72107
1.66109
1.60331
1.54766
1.49407
1.44247
1.39278
1.34494
1.29888
1.25455
1.21189
1.17084
1.13133
1.09334
1.05679
1.02163
0.987836
0.955346
0.92412
0.894115
0.865289
0.837605
0.811024
0.785508
0.761023
0.737534
0.71501
0.693417
0.672724
0.652901
0.633921
0.615754
0.598375
0.581755
0.565871
0.550696
0.536207
0.522381
0.509194
0.496624
0.48465
0.47325
0.462403
0.45209
0.44229
0.432984
0.424153
0.415778
0.407842
0.400326
0.393214
0.386487
0.380131
0.374128
0.368463
0.363121
0.358086
0.353344
0.348881
0.344682
0.340736
0.337029
0.333548
0.330282
0.32722
0.324349
0.32166
0.319143
0.316787
0.314583
0.312523
0.310597
0.308799
0.30712
0.305553
0.30409
0.302727
0.301455
0.30027
0.299166
0.298138
0.297181
0.29629
0.295461
0.294689
0.293972
0.293304
0.292684
0.292108
0.291572
0.291075
0.290613
0.290184
0.289786
0.289416
0.289074
0.288756
0.288461
0.288187
0.287933
0.287698
0.287481
0.287279
0.287092
0.286919
0.286759
0.286611
0.286473
0.286346
0.286229
0.286121
0.28602
0.285928
0.285842
0.285763
0.28569
0.285623
0.285561
0.285504
0.285451
0.285402
0.285357
0.285316
0.285278
0.285244
0.285212
0.285182
0.285155
0.28513
0.285108
0.285087
0.285068
0.285051
0.285035
0.28502
0.285007
0.284995
0.284984
0.284974
0.284965
0.284957
0.28495
0.284943
0.284937
0.284932
0.284927
0.284923
0.284919
0.284916
0.284913
0.28491
0.284908
0.284906
0.284904
0.284903
0.284901
0.2849
0.2849
0.284899
0.284898
0.284898
0.284898
0.284898
1.98325
1.91356
1.84641
1.78172
1.71939
1.65934
1.6015
1.54579
1.49213
1.44046
1.3907
1.34279
1.29665
1.25224
1.2095
1.16836
1.12877
1.09068
1.05404
1.01879
0.984899
0.952309
0.920979
0.890868
0.861934
0.834139
0.807443
0.781811
0.757206
0.733596
0.710946
0.689226
0.668403
0.648449
0.629334
0.611031
0.593513
0.576754
0.560728
0.54541
0.530777
0.516805
0.503472
0.490756
0.478635
0.467088
0.456095
0.445635
0.43569
0.42624
0.417266
0.408751
0.400675
0.393022
0.385775
0.378917
0.372432
0.366303
0.360515
0.355053
0.349902
0.345047
0.340475
0.336172
0.332125
0.32832
0.324746
0.321391
0.318243
0.31529
0.312524
0.309932
0.307505
0.305235
0.303111
0.301125
0.29927
0.297537
0.295919
0.294409
0.293
0.291686
0.290462
0.28932
0.288257
0.287267
0.286345
0.285486
0.284688
0.283945
0.283255
0.282612
0.282015
0.281461
0.280945
0.280467
0.280022
0.27961
0.279227
0.278871
0.278542
0.278236
0.277952
0.277689
0.277445
0.27722
0.27701
0.276817
0.276637
0.276471
0.276317
0.276175
0.276043
0.275922
0.275809
0.275705
0.275609
0.27552
0.275438
0.275362
0.275293
0.275228
0.275169
0.275114
0.275064
0.275017
0.274975
0.274935
0.274899
0.274866
0.274835
0.274807
0.274782
0.274758
0.274737
0.274717
0.274699
0.274682
0.274667
0.274654
0.274641
0.27463
0.27462
0.27461
0.274602
0.274594
0.274587
0.274581
0.274576
0.274571
0.274566
0.274562
0.274559
0.274556
0.274553
0.274551
0.274549
0.274547
0.274545
0.274544
0.274543
0.274542
0.274541
0.274541
0.274541
0.27454
0.27454
1.98185
1.91211
1.8449
1.78015
1.71777
1.65766
1.59976
1.54399
1.49027
1.43852
1.38869
1.34071
1.2945
1.25001
1.20719
1.16597
1.1263
1.08813
1.05139
1.01606
0.982066
0.949379
0.917949
0.887735
0.858696
0.830792
0.803985
0.778239
0.753518
0.729788
0.707016
0.685171
0.664221
0.644138
0.624891
0.606454
0.5888
0.571903
0.555737
0.540277
0.525501
0.511386
0.497907
0.485045
0.472778
0.461084
0.449944
0.439339
0.429248
0.419652
0.410535
0.401876
0.39366
0.385868
0.378484
0.371491
0.364874
0.358616
0.352702
0.347117
0.341846
0.336875
0.332191
0.327779
0.323627
0.319721
0.31605
0.312601
0.309364
0.306326
0.303478
0.300808
0.298307
0.295966
0.293775
0.291726
0.28981
0.288021
0.286349
0.284788
0.283331
0.281972
0.280705
0.279524
0.278423
0.277398
0.276443
0.275554
0.274727
0.273957
0.273241
0.272575
0.271956
0.271381
0.270847
0.27035
0.269889
0.269461
0.269063
0.268695
0.268352
0.268035
0.26774
0.267467
0.267214
0.26698
0.266763
0.266561
0.266375
0.266203
0.266043
0.265895
0.265758
0.265632
0.265515
0.265407
0.265307
0.265215
0.26513
0.265051
0.264979
0.264912
0.26485
0.264793
0.264741
0.264692
0.264648
0.264607
0.26457
0.264535
0.264503
0.264474
0.264448
0.264423
0.264401
0.26438
0.264362
0.264344
0.264329
0.264315
0.264302
0.26429
0.264279
0.26427
0.264261
0.264253
0.264246
0.264239
0.264233
0.264228
0.264224
0.26422
0.264216
0.264213
0.26421
0.264207
0.264205
0.264203
0.264202
0.264201
0.2642
0.264199
0.264198
0.264197
0.264197
0.264197
0.264197
1.9805
1.91071
1.84345
1.77865
1.71621
1.65605
1.59809
1.54225
1.48847
1.43666
1.38676
1.33871
1.29243
1.24787
1.20497
1.16367
1.12392
1.08566
1.04885
1.01342
0.979338
0.946556
0.915029
0.884716
0.855574
0.827565
0.80065
0.774793
0.749958
0.726112
0.703221
0.681255
0.660181
0.63997
0.620594
0.602025
0.584237
0.567204
0.5509
0.535302
0.520384
0.506126
0.492504
0.479497
0.467084
0.455244
0.443957
0.433205
0.422968
0.413227
0.403964
0.395162
0.386803
0.37887
0.371347
0.364217
0.357465
0.351075
0.345031
0.33932
0.333926
0.328836
0.324036
0.319511
0.31525
0.311239
0.307467
0.303921
0.30059
0.297462
0.294528
0.291777
0.289198
0.286782
0.28452
0.282404
0.280425
0.278575
0.276846
0.275231
0.273724
0.272317
0.271005
0.269781
0.268641
0.267578
0.266588
0.265666
0.264807
0.264009
0.263266
0.262575
0.261932
0.261335
0.26078
0.260264
0.259785
0.25934
0.258927
0.258544
0.258188
0.257858
0.257552
0.257268
0.257005
0.256761
0.256536
0.256326
0.256132
0.255953
0.255787
0.255633
0.255491
0.255359
0.255238
0.255125
0.255022
0.254926
0.254837
0.254755
0.25468
0.25461
0.254546
0.254487
0.254432
0.254382
0.254336
0.254293
0.254254
0.254218
0.254185
0.254155
0.254127
0.254102
0.254079
0.254057
0.254038
0.25402
0.254004
0.253989
0.253975
0.253963
0.253952
0.253942
0.253933
0.253925
0.253917
0.25391
0.253904
0.253899
0.253894
0.25389
0.253886
0.253883
0.25388
0.253877
0.253875
0.253873
0.253872
0.25387
0.253869
0.253868
0.253868
0.253867
0.253867
0.253866
0.253866
1.9792
1.90936
1.84206
1.77721
1.71471
1.6545
1.59648
1.54059
1.48674
1.43488
1.38491
1.33679
1.29045
1.24581
1.20284
1.16147
1.12164
1.0833
1.0464
1.01088
0.976714
0.943841
0.912221
0.881811
0.852569
0.824458
0.797439
0.771474
0.746529
0.722569
0.699563
0.677478
0.656282
0.635948
0.616446
0.597748
0.579829
0.562662
0.546223
0.530486
0.51543
0.50103
0.487266
0.474115
0.461558
0.449572
0.43814
0.427241
0.416857
0.40697
0.397561
0.388614
0.380111
0.372036
0.364371
0.357102
0.350213
0.343688
0.337513
0.331672
0.326152
0.320938
0.316018
0.311377
0.307003
0.302883
0.299005
0.295357
0.291928
0.288707
0.285683
0.282846
0.280185
0.277691
0.275354
0.273167
0.271121
0.269207
0.267417
0.265745
0.264184
0.262726
0.261365
0.260096
0.258913
0.25781
0.256782
0.255825
0.254934
0.254104
0.253332
0.252614
0.251946
0.251325
0.250747
0.250211
0.249713
0.24925
0.24882
0.248421
0.248051
0.247707
0.247389
0.247093
0.24682
0.246566
0.24633
0.246112
0.245911
0.245724
0.245551
0.24539
0.245242
0.245105
0.244979
0.244861
0.244753
0.244653
0.244561
0.244476
0.244397
0.244325
0.244258
0.244196
0.244139
0.244087
0.244039
0.243994
0.243954
0.243916
0.243882
0.24385
0.243821
0.243795
0.243771
0.243748
0.243728
0.243709
0.243693
0.243677
0.243663
0.24365
0.243639
0.243628
0.243619
0.24361
0.243602
0.243595
0.243589
0.243583
0.243578
0.243574
0.24357
0.243567
0.243564
0.243561
0.243559
0.243557
0.243555
0.243553
0.243552
0.243551
0.243551
0.24355
0.24355
0.243549
0.243549
1.97796
1.90807
1.84073
1.77582
1.71328
1.65301
1.59494
1.53899
1.48509
1.43316
1.38314
1.33495
1.28854
1.24384
1.2008
1.15935
1.11944
1.08103
1.04405
1.00845
0.974196
0.941235
0.909524
0.879021
0.849684
0.821474
0.794353
0.768284
0.743231
0.719162
0.696043
0.673842
0.652529
0.632074
0.612448
0.593625
0.575577
0.55828
0.541708
0.525836
0.510642
0.496104
0.482199
0.468906
0.456205
0.444075
0.432497
0.421453
0.410923
0.400889
0.391335
0.382242
0.373593
0.365374
0.357567
0.350157
0.343128
0.336466
0.330155
0.324182
0.318532
0.313192
0.308147
0.303386
0.298895
0.294662
0.290674
0.286921
0.28339
0.280071
0.276952
0.274024
0.271277
0.2687
0.266285
0.264022
0.261904
0.259923
0.258069
0.256336
0.254717
0.253204
0.251792
0.250475
0.249246
0.2481
0.247032
0.246037
0.24511
0.244247
0.243443
0.242696
0.242
0.241354
0.240752
0.240194
0.239675
0.239192
0.238745
0.238329
0.237943
0.237585
0.237253
0.236945
0.236659
0.236394
0.236149
0.235921
0.235711
0.235516
0.235335
0.235168
0.235014
0.234871
0.234738
0.234616
0.234503
0.234399
0.234302
0.234213
0.234131
0.234056
0.233986
0.233921
0.233862
0.233808
0.233757
0.233711
0.233668
0.233629
0.233594
0.233561
0.23353
0.233503
0.233477
0.233454
0.233433
0.233414
0.233396
0.23338
0.233365
0.233352
0.23334
0.233329
0.233319
0.23331
0.233302
0.233294
0.233288
0.233282
0.233277
0.233272
0.233268
0.233264
0.233261
0.233258
0.233256
0.233254
0.233252
0.233251
0.233249
0.233248
0.233248
0.233247
0.233247
0.233246
0.233246
1.97677
1.90684
1.83945
1.7745
1.71191
1.65159
1.59347
1.53747
1.48351
1.43152
1.38144
1.3332
1.28672
1.24195
1.19884
1.15732
1.11735
1.07885
1.0418
1.00612
0.971784
0.938738
0.90694
0.876347
0.846917
0.818612
0.791393
0.765223
0.740067
0.715891
0.692663
0.67035
0.648922
0.62835
0.608604
0.589658
0.571485
0.55406
0.537358
0.521354
0.506025
0.49135
0.477307
0.463874
0.451031
0.438758
0.427036
0.415847
0.405171
0.394991
0.385291
0.376051
0.367258
0.358893
0.350942
0.343389
0.336219
0.329416
0.322968
0.31686
0.311077
0.305606
0.300435
0.295549
0.290937
0.286586
0.282485
0.278621
0.274984
0.271561
0.268344
0.265321
0.262483
0.259819
0.25732
0.254978
0.252785
0.250731
0.248808
0.24701
0.24533
0.243759
0.242292
0.240923
0.239645
0.238453
0.237341
0.236305
0.23534
0.234441
0.233604
0.232825
0.2321
0.231425
0.230798
0.230215
0.229674
0.229171
0.228703
0.228269
0.227866
0.227492
0.227145
0.226823
0.226525
0.226248
0.225992
0.225754
0.225534
0.22533
0.225142
0.224967
0.224805
0.224656
0.224518
0.22439
0.224272
0.224163
0.224062
0.223969
0.223883
0.223804
0.223731
0.223663
0.223601
0.223544
0.223492
0.223443
0.223399
0.223358
0.223321
0.223286
0.223254
0.223226
0.223199
0.223175
0.223153
0.223132
0.223114
0.223097
0.223082
0.223068
0.223055
0.223043
0.223033
0.223024
0.223015
0.223008
0.223001
0.222995
0.222989
0.222984
0.22298
0.222976
0.222973
0.22297
0.222967
0.222965
0.222963
0.222962
0.222961
0.22296
0.222959
0.222958
0.222958
0.222957
0.222957
1.97564
1.90567
1.83823
1.77324
1.7106
1.65024
1.59206
1.53601
1.482
1.42996
1.37982
1.33152
1.28498
1.24015
1.19697
1.15539
1.11534
1.07678
1.03965
1.00389
0.969478
0.936351
0.904469
0.873789
0.84427
0.815873
0.78856
0.762292
0.737036
0.712758
0.689424
0.667003
0.645464
0.624777
0.604915
0.58585
0.567555
0.550006
0.533176
0.517043
0.501583
0.486774
0.472594
0.459024
0.446041
0.433627
0.421762
0.410429
0.399609
0.389284
0.379437
0.370052
0.361112
0.352601
0.344505
0.336808
0.329494
0.32255
0.315962
0.309716
0.303797
0.298192
0.29289
0.287876
0.283139
0.278667
0.274447
0.270469
0.26672
0.26319
0.25987
0.256747
0.253812
0.251056
0.24847
0.246044
0.24377
0.241639
0.239644
0.237777
0.23603
0.234397
0.232871
0.231446
0.230116
0.228874
0.227716
0.226636
0.225629
0.224691
0.223818
0.223004
0.222247
0.221543
0.220888
0.220279
0.219713
0.219187
0.218698
0.218244
0.217822
0.217431
0.217068
0.216731
0.216419
0.216129
0.215861
0.215612
0.215382
0.215168
0.214971
0.214788
0.214618
0.214462
0.214317
0.214183
0.214059
0.213945
0.21384
0.213742
0.213652
0.213569
0.213493
0.213422
0.213357
0.213297
0.213242
0.213191
0.213145
0.213102
0.213063
0.213026
0.212993
0.212963
0.212935
0.21291
0.212886
0.212865
0.212846
0.212828
0.212812
0.212797
0.212784
0.212772
0.212761
0.212751
0.212743
0.212735
0.212727
0.212721
0.212715
0.21271
0.212706
0.212702
0.212698
0.212695
0.212692
0.21269
0.212688
0.212687
0.212685
0.212684
0.212683
0.212683
0.212682
0.212682
0.212682
1.97456
1.90455
1.83708
1.77204
1.70936
1.64895
1.59073
1.53462
1.48056
1.42847
1.37828
1.32991
1.28332
1.23843
1.19519
1.15354
1.11343
1.0748
1.0376
1.00177
0.967279
0.934074
0.902111
0.871348
0.841744
0.813258
0.785854
0.759493
0.734141
0.709763
0.686328
0.663802
0.642156
0.621359
0.601384
0.582203
0.56379
0.546119
0.529166
0.512907
0.497318
0.482378
0.468066
0.45436
0.44124
0.428687
0.416682
0.405206
0.394243
0.383773
0.373782
0.364251
0.355165
0.346508
0.338266
0.330423
0.322966
0.315878
0.309148
0.302761
0.296703
0.290962
0.285526
0.28038
0.275514
0.270916
0.266573
0.262476
0.258611
0.254969
0.25154
0.248313
0.245277
0.242424
0.239745
0.237229
0.23487
0.232658
0.230585
0.228644
0.226827
0.225127
0.223538
0.222053
0.220666
0.219371
0.218162
0.217034
0.215983
0.215003
0.21409
0.21324
0.212448
0.211711
0.211025
0.210388
0.209795
0.209244
0.208732
0.208256
0.207814
0.207404
0.207024
0.206671
0.206343
0.206039
0.205758
0.205497
0.205255
0.205031
0.204823
0.204631
0.204454
0.204289
0.204137
0.203997
0.203867
0.203747
0.203636
0.203534
0.203439
0.203352
0.203271
0.203197
0.203129
0.203066
0.203008
0.202955
0.202906
0.202861
0.20282
0.202782
0.202747
0.202715
0.202686
0.202659
0.202635
0.202613
0.202592
0.202574
0.202557
0.202541
0.202527
0.202515
0.202503
0.202493
0.202484
0.202475
0.202468
0.202461
0.202455